written on 29Mar2015 at 03:24:51 
3
27
1
2
3
4
5
6
7
8
9
10
11
12
13
14
15
16
17
18
19
20
24
25
26
27
28
29
30
   3.8420911229676946       0.0000000000000000       0.0000000000000000       0.0000000000000000       3.8420911229676946       0.0000000000000000       0.0000000000000000       0.0000000000000000       3.8420911229676946    
   1.6353556191364744       0.0000000000000000       0.0000000000000000       0.0000000000000000       1.6353556191364744       0.0000000000000000       0.0000000000000000       0.0000000000000000       1.6353556191364744    
512
8 8 8
 -0.37500000000000000     -0.37500000000000000     -0.37500000000000000    
 -0.37500000000000000     -0.37500000000000000     -0.25000000000000000    
 -0.37500000000000000     -0.37500000000000000     -0.12500000000000000    
 -0.37500000000000000     -0.37500000000000000       0.0000000000000000    
 -0.37500000000000000     -0.37500000000000000      0.12500000000000000    
 -0.37500000000000000     -0.37500000000000000      0.25000000000000000    
 -0.37500000000000000     -0.37500000000000000      0.37500000000000000    
 -0.37500000000000000     -0.37500000000000000      0.50000000000000000    
 -0.37500000000000000     -0.25000000000000000     -0.37500000000000000    
 -0.37500000000000000     -0.25000000000000000     -0.25000000000000000    
 -0.37500000000000000     -0.25000000000000000     -0.12500000000000000    
 -0.37500000000000000     -0.25000000000000000       0.0000000000000000    
 -0.37500000000000000     -0.25000000000000000      0.12500000000000000    
 -0.37500000000000000     -0.25000000000000000      0.25000000000000000    
 -0.37500000000000000     -0.25000000000000000      0.37500000000000000    
 -0.37500000000000000     -0.25000000000000000      0.50000000000000000    
 -0.37500000000000000     -0.12500000000000000     -0.37500000000000000    
 -0.37500000000000000     -0.12500000000000000     -0.25000000000000000    
 -0.37500000000000000     -0.12500000000000000     -0.12500000000000000    
 -0.37500000000000000     -0.12500000000000000       0.0000000000000000    
 -0.37500000000000000     -0.12500000000000000      0.12500000000000000    
 -0.37500000000000000     -0.12500000000000000      0.25000000000000000    
 -0.37500000000000000     -0.12500000000000000      0.37500000000000000    
 -0.37500000000000000     -0.12500000000000000      0.50000000000000000    
 -0.37500000000000000       0.0000000000000000     -0.37500000000000000    
 -0.37500000000000000       0.0000000000000000     -0.25000000000000000    
 -0.37500000000000000       0.0000000000000000     -0.12500000000000000    
 -0.37500000000000000       0.0000000000000000       0.0000000000000000    
 -0.37500000000000000       0.0000000000000000      0.12500000000000000    
 -0.37500000000000000       0.0000000000000000      0.25000000000000000    
 -0.37500000000000000       0.0000000000000000      0.37500000000000000    
 -0.37500000000000000       0.0000000000000000      0.50000000000000000    
 -0.37500000000000000      0.12500000000000000     -0.37500000000000000    
 -0.37500000000000000      0.12500000000000000     -0.25000000000000000    
 -0.37500000000000000      0.12500000000000000     -0.12500000000000000    
 -0.37500000000000000      0.12500000000000000       0.0000000000000000    
 -0.37500000000000000      0.12500000000000000      0.12500000000000000    
 -0.37500000000000000      0.12500000000000000      0.25000000000000000    
 -0.37500000000000000      0.12500000000000000      0.37500000000000000    
 -0.37500000000000000      0.12500000000000000      0.50000000000000000    
 -0.37500000000000000      0.25000000000000000     -0.37500000000000000    
 -0.37500000000000000      0.25000000000000000     -0.25000000000000000    
 -0.37500000000000000      0.25000000000000000     -0.12500000000000000    
 -0.37500000000000000      0.25000000000000000       0.0000000000000000    
 -0.37500000000000000      0.25000000000000000      0.12500000000000000    
 -0.37500000000000000      0.25000000000000000      0.25000000000000000    
 -0.37500000000000000      0.25000000000000000      0.37500000000000000    
 -0.37500000000000000      0.25000000000000000      0.50000000000000000    
 -0.37500000000000000      0.37500000000000000     -0.37500000000000000    
 -0.37500000000000000      0.37500000000000000     -0.25000000000000000    
 -0.37500000000000000      0.37500000000000000     -0.12500000000000000    
 -0.37500000000000000      0.37500000000000000       0.0000000000000000    
 -0.37500000000000000      0.37500000000000000      0.12500000000000000    
 -0.37500000000000000      0.37500000000000000      0.25000000000000000    
 -0.37500000000000000      0.37500000000000000      0.37500000000000000    
 -0.37500000000000000      0.37500000000000000      0.50000000000000000    
 -0.37500000000000000      0.50000000000000000     -0.37500000000000000    
 -0.37500000000000000      0.50000000000000000     -0.25000000000000000    
 -0.37500000000000000      0.50000000000000000     -0.12500000000000000    
 -0.37500000000000000      0.50000000000000000       0.0000000000000000    
 -0.37500000000000000      0.50000000000000000      0.12500000000000000    
 -0.37500000000000000      0.50000000000000000      0.25000000000000000    
 -0.37500000000000000      0.50000000000000000      0.37500000000000000    
 -0.37500000000000000      0.50000000000000000      0.50000000000000000    
 -0.25000000000000000     -0.37500000000000000     -0.37500000000000000    
 -0.25000000000000000     -0.37500000000000000     -0.25000000000000000    
 -0.25000000000000000     -0.37500000000000000     -0.12500000000000000    
 -0.25000000000000000     -0.37500000000000000       0.0000000000000000    
 -0.25000000000000000     -0.37500000000000000      0.12500000000000000    
 -0.25000000000000000     -0.37500000000000000      0.25000000000000000    
 -0.25000000000000000     -0.37500000000000000      0.37500000000000000    
 -0.25000000000000000     -0.37500000000000000      0.50000000000000000    
 -0.25000000000000000     -0.25000000000000000     -0.37500000000000000    
 -0.25000000000000000     -0.25000000000000000     -0.25000000000000000    
 -0.25000000000000000     -0.25000000000000000     -0.12500000000000000    
 -0.25000000000000000     -0.25000000000000000       0.0000000000000000    
 -0.25000000000000000     -0.25000000000000000      0.12500000000000000    
 -0.25000000000000000     -0.25000000000000000      0.25000000000000000    
 -0.25000000000000000     -0.25000000000000000      0.37500000000000000    
 -0.25000000000000000     -0.25000000000000000      0.50000000000000000    
 -0.25000000000000000     -0.12500000000000000     -0.37500000000000000    
 -0.25000000000000000     -0.12500000000000000     -0.25000000000000000    
 -0.25000000000000000     -0.12500000000000000     -0.12500000000000000    
 -0.25000000000000000     -0.12500000000000000       0.0000000000000000    
 -0.25000000000000000     -0.12500000000000000      0.12500000000000000    
 -0.25000000000000000     -0.12500000000000000      0.25000000000000000    
 -0.25000000000000000     -0.12500000000000000      0.37500000000000000    
 -0.25000000000000000     -0.12500000000000000      0.50000000000000000    
 -0.25000000000000000       0.0000000000000000     -0.37500000000000000    
 -0.25000000000000000       0.0000000000000000     -0.25000000000000000    
 -0.25000000000000000       0.0000000000000000     -0.12500000000000000    
 -0.25000000000000000       0.0000000000000000       0.0000000000000000    
 -0.25000000000000000       0.0000000000000000      0.12500000000000000    
 -0.25000000000000000       0.0000000000000000      0.25000000000000000    
 -0.25000000000000000       0.0000000000000000      0.37500000000000000    
 -0.25000000000000000       0.0000000000000000      0.50000000000000000    
 -0.25000000000000000      0.12500000000000000     -0.37500000000000000    
 -0.25000000000000000      0.12500000000000000     -0.25000000000000000    
 -0.25000000000000000      0.12500000000000000     -0.12500000000000000    
 -0.25000000000000000      0.12500000000000000       0.0000000000000000    
 -0.25000000000000000      0.12500000000000000      0.12500000000000000    
 -0.25000000000000000      0.12500000000000000      0.25000000000000000    
 -0.25000000000000000      0.12500000000000000      0.37500000000000000    
 -0.25000000000000000      0.12500000000000000      0.50000000000000000    
 -0.25000000000000000      0.25000000000000000     -0.37500000000000000    
 -0.25000000000000000      0.25000000000000000     -0.25000000000000000    
 -0.25000000000000000      0.25000000000000000     -0.12500000000000000    
 -0.25000000000000000      0.25000000000000000       0.0000000000000000    
 -0.25000000000000000      0.25000000000000000      0.12500000000000000    
 -0.25000000000000000      0.25000000000000000      0.25000000000000000    
 -0.25000000000000000      0.25000000000000000      0.37500000000000000    
 -0.25000000000000000      0.25000000000000000      0.50000000000000000    
 -0.25000000000000000      0.37500000000000000     -0.37500000000000000    
 -0.25000000000000000      0.37500000000000000     -0.25000000000000000    
 -0.25000000000000000      0.37500000000000000     -0.12500000000000000    
 -0.25000000000000000      0.37500000000000000       0.0000000000000000    
 -0.25000000000000000      0.37500000000000000      0.12500000000000000    
 -0.25000000000000000      0.37500000000000000      0.25000000000000000    
 -0.25000000000000000      0.37500000000000000      0.37500000000000000    
 -0.25000000000000000      0.37500000000000000      0.50000000000000000    
 -0.25000000000000000      0.50000000000000000     -0.37500000000000000    
 -0.25000000000000000      0.50000000000000000     -0.25000000000000000    
 -0.25000000000000000      0.50000000000000000     -0.12500000000000000    
 -0.25000000000000000      0.50000000000000000       0.0000000000000000    
 -0.25000000000000000      0.50000000000000000      0.12500000000000000    
 -0.25000000000000000      0.50000000000000000      0.25000000000000000    
 -0.25000000000000000      0.50000000000000000      0.37500000000000000    
 -0.25000000000000000      0.50000000000000000      0.50000000000000000    
 -0.12500000000000000     -0.37500000000000000     -0.37500000000000000    
 -0.12500000000000000     -0.37500000000000000     -0.25000000000000000    
 -0.12500000000000000     -0.37500000000000000     -0.12500000000000000    
 -0.12500000000000000     -0.37500000000000000       0.0000000000000000    
 -0.12500000000000000     -0.37500000000000000      0.12500000000000000    
 -0.12500000000000000     -0.37500000000000000      0.25000000000000000    
 -0.12500000000000000     -0.37500000000000000      0.37500000000000000    
 -0.12500000000000000     -0.37500000000000000      0.50000000000000000    
 -0.12500000000000000     -0.25000000000000000     -0.37500000000000000    
 -0.12500000000000000     -0.25000000000000000     -0.25000000000000000    
 -0.12500000000000000     -0.25000000000000000     -0.12500000000000000    
 -0.12500000000000000     -0.25000000000000000       0.0000000000000000    
 -0.12500000000000000     -0.25000000000000000      0.12500000000000000    
 -0.12500000000000000     -0.25000000000000000      0.25000000000000000    
 -0.12500000000000000     -0.25000000000000000      0.37500000000000000    
 -0.12500000000000000     -0.25000000000000000      0.50000000000000000    
 -0.12500000000000000     -0.12500000000000000     -0.37500000000000000    
 -0.12500000000000000     -0.12500000000000000     -0.25000000000000000    
 -0.12500000000000000     -0.12500000000000000     -0.12500000000000000    
 -0.12500000000000000     -0.12500000000000000       0.0000000000000000    
 -0.12500000000000000     -0.12500000000000000      0.12500000000000000    
 -0.12500000000000000     -0.12500000000000000      0.25000000000000000    
 -0.12500000000000000     -0.12500000000000000      0.37500000000000000    
 -0.12500000000000000     -0.12500000000000000      0.50000000000000000    
 -0.12500000000000000       0.0000000000000000     -0.37500000000000000    
 -0.12500000000000000       0.0000000000000000     -0.25000000000000000    
 -0.12500000000000000       0.0000000000000000     -0.12500000000000000    
 -0.12500000000000000       0.0000000000000000       0.0000000000000000    
 -0.12500000000000000       0.0000000000000000      0.12500000000000000    
 -0.12500000000000000       0.0000000000000000      0.25000000000000000    
 -0.12500000000000000       0.0000000000000000      0.37500000000000000    
 -0.12500000000000000       0.0000000000000000      0.50000000000000000    
 -0.12500000000000000      0.12500000000000000     -0.37500000000000000    
 -0.12500000000000000      0.12500000000000000     -0.25000000000000000    
 -0.12500000000000000      0.12500000000000000     -0.12500000000000000    
 -0.12500000000000000      0.12500000000000000       0.0000000000000000    
 -0.12500000000000000      0.12500000000000000      0.12500000000000000    
 -0.12500000000000000      0.12500000000000000      0.25000000000000000    
 -0.12500000000000000      0.12500000000000000      0.37500000000000000    
 -0.12500000000000000      0.12500000000000000      0.50000000000000000    
 -0.12500000000000000      0.25000000000000000     -0.37500000000000000    
 -0.12500000000000000      0.25000000000000000     -0.25000000000000000    
 -0.12500000000000000      0.25000000000000000     -0.12500000000000000    
 -0.12500000000000000      0.25000000000000000       0.0000000000000000    
 -0.12500000000000000      0.25000000000000000      0.12500000000000000    
 -0.12500000000000000      0.25000000000000000      0.25000000000000000    
 -0.12500000000000000      0.25000000000000000      0.37500000000000000    
 -0.12500000000000000      0.25000000000000000      0.50000000000000000    
 -0.12500000000000000      0.37500000000000000     -0.37500000000000000    
 -0.12500000000000000      0.37500000000000000     -0.25000000000000000    
 -0.12500000000000000      0.37500000000000000     -0.12500000000000000    
 -0.12500000000000000      0.37500000000000000       0.0000000000000000    
 -0.12500000000000000      0.37500000000000000      0.12500000000000000    
 -0.12500000000000000      0.37500000000000000      0.25000000000000000    
 -0.12500000000000000      0.37500000000000000      0.37500000000000000    
 -0.12500000000000000      0.37500000000000000      0.50000000000000000    
 -0.12500000000000000      0.50000000000000000     -0.37500000000000000    
 -0.12500000000000000      0.50000000000000000     -0.25000000000000000    
 -0.12500000000000000      0.50000000000000000     -0.12500000000000000    
 -0.12500000000000000      0.50000000000000000       0.0000000000000000    
 -0.12500000000000000      0.50000000000000000      0.12500000000000000    
 -0.12500000000000000      0.50000000000000000      0.25000000000000000    
 -0.12500000000000000      0.50000000000000000      0.37500000000000000    
 -0.12500000000000000      0.50000000000000000      0.50000000000000000    
   0.0000000000000000     -0.37500000000000000     -0.37500000000000000    
   0.0000000000000000     -0.37500000000000000     -0.25000000000000000    
   0.0000000000000000     -0.37500000000000000     -0.12500000000000000    
   0.0000000000000000     -0.37500000000000000       0.0000000000000000    
   0.0000000000000000     -0.37500000000000000      0.12500000000000000    
   0.0000000000000000     -0.37500000000000000      0.25000000000000000    
   0.0000000000000000     -0.37500000000000000      0.37500000000000000    
   0.0000000000000000     -0.37500000000000000      0.50000000000000000    
   0.0000000000000000     -0.25000000000000000     -0.37500000000000000    
   0.0000000000000000     -0.25000000000000000     -0.25000000000000000    
   0.0000000000000000     -0.25000000000000000     -0.12500000000000000    
   0.0000000000000000     -0.25000000000000000       0.0000000000000000    
   0.0000000000000000     -0.25000000000000000      0.12500000000000000    
   0.0000000000000000     -0.25000000000000000      0.25000000000000000    
   0.0000000000000000     -0.25000000000000000      0.37500000000000000    
   0.0000000000000000     -0.25000000000000000      0.50000000000000000    
   0.0000000000000000     -0.12500000000000000     -0.37500000000000000    
   0.0000000000000000     -0.12500000000000000     -0.25000000000000000    
   0.0000000000000000     -0.12500000000000000     -0.12500000000000000    
   0.0000000000000000     -0.12500000000000000       0.0000000000000000    
   0.0000000000000000     -0.12500000000000000      0.12500000000000000    
   0.0000000000000000     -0.12500000000000000      0.25000000000000000    
   0.0000000000000000     -0.12500000000000000      0.37500000000000000    
   0.0000000000000000     -0.12500000000000000      0.50000000000000000    
   0.0000000000000000       0.0000000000000000     -0.37500000000000000    
   0.0000000000000000       0.0000000000000000     -0.25000000000000000    
   0.0000000000000000       0.0000000000000000     -0.12500000000000000    
   0.0000000000000000       0.0000000000000000       0.0000000000000000    
   0.0000000000000000       0.0000000000000000      0.12500000000000000    
   0.0000000000000000       0.0000000000000000      0.25000000000000000    
   0.0000000000000000       0.0000000000000000      0.37500000000000000    
   0.0000000000000000       0.0000000000000000      0.50000000000000000    
   0.0000000000000000      0.12500000000000000     -0.37500000000000000    
   0.0000000000000000      0.12500000000000000     -0.25000000000000000    
   0.0000000000000000      0.12500000000000000     -0.12500000000000000    
   0.0000000000000000      0.12500000000000000       0.0000000000000000    
   0.0000000000000000      0.12500000000000000      0.12500000000000000    
   0.0000000000000000      0.12500000000000000      0.25000000000000000    
   0.0000000000000000      0.12500000000000000      0.37500000000000000    
   0.0000000000000000      0.12500000000000000      0.50000000000000000    
   0.0000000000000000      0.25000000000000000     -0.37500000000000000    
   0.0000000000000000      0.25000000000000000     -0.25000000000000000    
   0.0000000000000000      0.25000000000000000     -0.12500000000000000    
   0.0000000000000000      0.25000000000000000       0.0000000000000000    
   0.0000000000000000      0.25000000000000000      0.12500000000000000    
   0.0000000000000000      0.25000000000000000      0.25000000000000000    
   0.0000000000000000      0.25000000000000000      0.37500000000000000    
   0.0000000000000000      0.25000000000000000      0.50000000000000000    
   0.0000000000000000      0.37500000000000000     -0.37500000000000000    
   0.0000000000000000      0.37500000000000000     -0.25000000000000000    
   0.0000000000000000      0.37500000000000000     -0.12500000000000000    
   0.0000000000000000      0.37500000000000000       0.0000000000000000    
   0.0000000000000000      0.37500000000000000      0.12500000000000000    
   0.0000000000000000      0.37500000000000000      0.25000000000000000    
   0.0000000000000000      0.37500000000000000      0.37500000000000000    
   0.0000000000000000      0.37500000000000000      0.50000000000000000    
   0.0000000000000000      0.50000000000000000     -0.37500000000000000    
   0.0000000000000000      0.50000000000000000     -0.25000000000000000    
   0.0000000000000000      0.50000000000000000     -0.12500000000000000    
   0.0000000000000000      0.50000000000000000       0.0000000000000000    
   0.0000000000000000      0.50000000000000000      0.12500000000000000    
   0.0000000000000000      0.50000000000000000      0.25000000000000000    
   0.0000000000000000      0.50000000000000000      0.37500000000000000    
   0.0000000000000000      0.50000000000000000      0.50000000000000000    
  0.12500000000000000     -0.37500000000000000     -0.37500000000000000    
  0.12500000000000000     -0.37500000000000000     -0.25000000000000000    
  0.12500000000000000     -0.37500000000000000     -0.12500000000000000    
  0.12500000000000000     -0.37500000000000000       0.0000000000000000    
  0.12500000000000000     -0.37500000000000000      0.12500000000000000    
  0.12500000000000000     -0.37500000000000000      0.25000000000000000    
  0.12500000000000000     -0.37500000000000000      0.37500000000000000    
  0.12500000000000000     -0.37500000000000000      0.50000000000000000    
  0.12500000000000000     -0.25000000000000000     -0.37500000000000000    
  0.12500000000000000     -0.25000000000000000     -0.25000000000000000    
  0.12500000000000000     -0.25000000000000000     -0.12500000000000000    
  0.12500000000000000     -0.25000000000000000       0.0000000000000000    
  0.12500000000000000     -0.25000000000000000      0.12500000000000000    
  0.12500000000000000     -0.25000000000000000      0.25000000000000000    
  0.12500000000000000     -0.25000000000000000      0.37500000000000000    
  0.12500000000000000     -0.25000000000000000      0.50000000000000000    
  0.12500000000000000     -0.12500000000000000     -0.37500000000000000    
  0.12500000000000000     -0.12500000000000000     -0.25000000000000000    
  0.12500000000000000     -0.12500000000000000     -0.12500000000000000    
  0.12500000000000000     -0.12500000000000000       0.0000000000000000    
  0.12500000000000000     -0.12500000000000000      0.12500000000000000    
  0.12500000000000000     -0.12500000000000000      0.25000000000000000    
  0.12500000000000000     -0.12500000000000000      0.37500000000000000    
  0.12500000000000000     -0.12500000000000000      0.50000000000000000    
  0.12500000000000000       0.0000000000000000     -0.37500000000000000    
  0.12500000000000000       0.0000000000000000     -0.25000000000000000    
  0.12500000000000000       0.0000000000000000     -0.12500000000000000    
  0.12500000000000000       0.0000000000000000       0.0000000000000000    
  0.12500000000000000       0.0000000000000000      0.12500000000000000    
  0.12500000000000000       0.0000000000000000      0.25000000000000000    
  0.12500000000000000       0.0000000000000000      0.37500000000000000    
  0.12500000000000000       0.0000000000000000      0.50000000000000000    
  0.12500000000000000      0.12500000000000000     -0.37500000000000000    
  0.12500000000000000      0.12500000000000000     -0.25000000000000000    
  0.12500000000000000      0.12500000000000000     -0.12500000000000000    
  0.12500000000000000      0.12500000000000000       0.0000000000000000    
  0.12500000000000000      0.12500000000000000      0.12500000000000000    
  0.12500000000000000      0.12500000000000000      0.25000000000000000    
  0.12500000000000000      0.12500000000000000      0.37500000000000000    
  0.12500000000000000      0.12500000000000000      0.50000000000000000    
  0.12500000000000000      0.25000000000000000     -0.37500000000000000    
  0.12500000000000000      0.25000000000000000     -0.25000000000000000    
  0.12500000000000000      0.25000000000000000     -0.12500000000000000    
  0.12500000000000000      0.25000000000000000       0.0000000000000000    
  0.12500000000000000      0.25000000000000000      0.12500000000000000    
  0.12500000000000000      0.25000000000000000      0.25000000000000000    
  0.12500000000000000      0.25000000000000000      0.37500000000000000    
  0.12500000000000000      0.25000000000000000      0.50000000000000000    
  0.12500000000000000      0.37500000000000000     -0.37500000000000000    
  0.12500000000000000      0.37500000000000000     -0.25000000000000000    
  0.12500000000000000      0.37500000000000000     -0.12500000000000000    
  0.12500000000000000      0.37500000000000000       0.0000000000000000    
  0.12500000000000000      0.37500000000000000      0.12500000000000000    
  0.12500000000000000      0.37500000000000000      0.25000000000000000    
  0.12500000000000000      0.37500000000000000      0.37500000000000000    
  0.12500000000000000      0.37500000000000000      0.50000000000000000    
  0.12500000000000000      0.50000000000000000     -0.37500000000000000    
  0.12500000000000000      0.50000000000000000     -0.25000000000000000    
  0.12500000000000000      0.50000000000000000     -0.12500000000000000    
  0.12500000000000000      0.50000000000000000       0.0000000000000000    
  0.12500000000000000      0.50000000000000000      0.12500000000000000    
  0.12500000000000000      0.50000000000000000      0.25000000000000000    
  0.12500000000000000      0.50000000000000000      0.37500000000000000    
  0.12500000000000000      0.50000000000000000      0.50000000000000000    
  0.25000000000000000     -0.37500000000000000     -0.37500000000000000    
  0.25000000000000000     -0.37500000000000000     -0.25000000000000000    
  0.25000000000000000     -0.37500000000000000     -0.12500000000000000    
  0.25000000000000000     -0.37500000000000000       0.0000000000000000    
  0.25000000000000000     -0.37500000000000000      0.12500000000000000    
  0.25000000000000000     -0.37500000000000000      0.25000000000000000    
  0.25000000000000000     -0.37500000000000000      0.37500000000000000    
  0.25000000000000000     -0.37500000000000000      0.50000000000000000    
  0.25000000000000000     -0.25000000000000000     -0.37500000000000000    
  0.25000000000000000     -0.25000000000000000     -0.25000000000000000    
  0.25000000000000000     -0.25000000000000000     -0.12500000000000000    
  0.25000000000000000     -0.25000000000000000       0.0000000000000000    
  0.25000000000000000     -0.25000000000000000      0.12500000000000000    
  0.25000000000000000     -0.25000000000000000      0.25000000000000000    
  0.25000000000000000     -0.25000000000000000      0.37500000000000000    
  0.25000000000000000     -0.25000000000000000      0.50000000000000000    
  0.25000000000000000     -0.12500000000000000     -0.37500000000000000    
  0.25000000000000000     -0.12500000000000000     -0.25000000000000000    
  0.25000000000000000     -0.12500000000000000     -0.12500000000000000    
  0.25000000000000000     -0.12500000000000000       0.0000000000000000    
  0.25000000000000000     -0.12500000000000000      0.12500000000000000    
  0.25000000000000000     -0.12500000000000000      0.25000000000000000    
  0.25000000000000000     -0.12500000000000000      0.37500000000000000    
  0.25000000000000000     -0.12500000000000000      0.50000000000000000    
  0.25000000000000000       0.0000000000000000     -0.37500000000000000    
  0.25000000000000000       0.0000000000000000     -0.25000000000000000    
  0.25000000000000000       0.0000000000000000     -0.12500000000000000    
  0.25000000000000000       0.0000000000000000       0.0000000000000000    
  0.25000000000000000       0.0000000000000000      0.12500000000000000    
  0.25000000000000000       0.0000000000000000      0.25000000000000000    
  0.25000000000000000       0.0000000000000000      0.37500000000000000    
  0.25000000000000000       0.0000000000000000      0.50000000000000000    
  0.25000000000000000      0.12500000000000000     -0.37500000000000000    
  0.25000000000000000      0.12500000000000000     -0.25000000000000000    
  0.25000000000000000      0.12500000000000000     -0.12500000000000000    
  0.25000000000000000      0.12500000000000000       0.0000000000000000    
  0.25000000000000000      0.12500000000000000      0.12500000000000000    
  0.25000000000000000      0.12500000000000000      0.25000000000000000    
  0.25000000000000000      0.12500000000000000      0.37500000000000000    
  0.25000000000000000      0.12500000000000000      0.50000000000000000    
  0.25000000000000000      0.25000000000000000     -0.37500000000000000    
  0.25000000000000000      0.25000000000000000     -0.25000000000000000    
  0.25000000000000000      0.25000000000000000     -0.12500000000000000    
  0.25000000000000000      0.25000000000000000       0.0000000000000000    
  0.25000000000000000      0.25000000000000000      0.12500000000000000    
  0.25000000000000000      0.25000000000000000      0.25000000000000000    
  0.25000000000000000      0.25000000000000000      0.37500000000000000    
  0.25000000000000000      0.25000000000000000      0.50000000000000000    
  0.25000000000000000      0.37500000000000000     -0.37500000000000000    
  0.25000000000000000      0.37500000000000000     -0.25000000000000000    
  0.25000000000000000      0.37500000000000000     -0.12500000000000000    
  0.25000000000000000      0.37500000000000000       0.0000000000000000    
  0.25000000000000000      0.37500000000000000      0.12500000000000000    
  0.25000000000000000      0.37500000000000000      0.25000000000000000    
  0.25000000000000000      0.37500000000000000      0.37500000000000000    
  0.25000000000000000      0.37500000000000000      0.50000000000000000    
  0.25000000000000000      0.50000000000000000     -0.37500000000000000    
  0.25000000000000000      0.50000000000000000     -0.25000000000000000    
  0.25000000000000000      0.50000000000000000     -0.12500000000000000    
  0.25000000000000000      0.50000000000000000       0.0000000000000000    
  0.25000000000000000      0.50000000000000000      0.12500000000000000    
  0.25000000000000000      0.50000000000000000      0.25000000000000000    
  0.25000000000000000      0.50000000000000000      0.37500000000000000    
  0.25000000000000000      0.50000000000000000      0.50000000000000000    
  0.37500000000000000     -0.37500000000000000     -0.37500000000000000    
  0.37500000000000000     -0.37500000000000000     -0.25000000000000000    
  0.37500000000000000     -0.37500000000000000     -0.12500000000000000    
  0.37500000000000000     -0.37500000000000000       0.0000000000000000    
  0.37500000000000000     -0.37500000000000000      0.12500000000000000    
  0.37500000000000000     -0.37500000000000000      0.25000000000000000    
  0.37500000000000000     -0.37500000000000000      0.37500000000000000    
  0.37500000000000000     -0.37500000000000000      0.50000000000000000    
  0.37500000000000000     -0.25000000000000000     -0.37500000000000000    
  0.37500000000000000     -0.25000000000000000     -0.25000000000000000    
  0.37500000000000000     -0.25000000000000000     -0.12500000000000000    
  0.37500000000000000     -0.25000000000000000       0.0000000000000000    
  0.37500000000000000     -0.25000000000000000      0.12500000000000000    
  0.37500000000000000     -0.25000000000000000      0.25000000000000000    
  0.37500000000000000     -0.25000000000000000      0.37500000000000000    
  0.37500000000000000     -0.25000000000000000      0.50000000000000000    
  0.37500000000000000     -0.12500000000000000     -0.37500000000000000    
  0.37500000000000000     -0.12500000000000000     -0.25000000000000000    
  0.37500000000000000     -0.12500000000000000     -0.12500000000000000    
  0.37500000000000000     -0.12500000000000000       0.0000000000000000    
  0.37500000000000000     -0.12500000000000000      0.12500000000000000    
  0.37500000000000000     -0.12500000000000000      0.25000000000000000    
  0.37500000000000000     -0.12500000000000000      0.37500000000000000    
  0.37500000000000000     -0.12500000000000000      0.50000000000000000    
  0.37500000000000000       0.0000000000000000     -0.37500000000000000    
  0.37500000000000000       0.0000000000000000     -0.25000000000000000    
  0.37500000000000000       0.0000000000000000     -0.12500000000000000    
  0.37500000000000000       0.0000000000000000       0.0000000000000000    
  0.37500000000000000       0.0000000000000000      0.12500000000000000    
  0.37500000000000000       0.0000000000000000      0.25000000000000000    
  0.37500000000000000       0.0000000000000000      0.37500000000000000    
  0.37500000000000000       0.0000000000000000      0.50000000000000000    
  0.37500000000000000      0.12500000000000000     -0.37500000000000000    
  0.37500000000000000      0.12500000000000000     -0.25000000000000000    
  0.37500000000000000      0.12500000000000000     -0.12500000000000000    
  0.37500000000000000      0.12500000000000000       0.0000000000000000    
  0.37500000000000000      0.12500000000000000      0.12500000000000000    
  0.37500000000000000      0.12500000000000000      0.25000000000000000    
  0.37500000000000000      0.12500000000000000      0.37500000000000000    
  0.37500000000000000      0.12500000000000000      0.50000000000000000    
  0.37500000000000000      0.25000000000000000     -0.37500000000000000    
  0.37500000000000000      0.25000000000000000     -0.25000000000000000    
  0.37500000000000000      0.25000000000000000     -0.12500000000000000    
  0.37500000000000000      0.25000000000000000       0.0000000000000000    
  0.37500000000000000      0.25000000000000000      0.12500000000000000    
  0.37500000000000000      0.25000000000000000      0.25000000000000000    
  0.37500000000000000      0.25000000000000000      0.37500000000000000    
  0.37500000000000000      0.25000000000000000      0.50000000000000000    
  0.37500000000000000      0.37500000000000000     -0.37500000000000000    
  0.37500000000000000      0.37500000000000000     -0.25000000000000000    
  0.37500000000000000      0.37500000000000000     -0.12500000000000000    
  0.37500000000000000      0.37500000000000000       0.0000000000000000    
  0.37500000000000000      0.37500000000000000      0.12500000000000000    
  0.37500000000000000      0.37500000000000000      0.25000000000000000    
  0.37500000000000000      0.37500000000000000      0.37500000000000000    
  0.37500000000000000      0.37500000000000000      0.50000000000000000    
  0.37500000000000000      0.50000000000000000     -0.37500000000000000    
  0.37500000000000000      0.50000000000000000     -0.25000000000000000    
  0.37500000000000000      0.50000000000000000     -0.12500000000000000    
  0.37500000000000000      0.50000000000000000       0.0000000000000000    
  0.37500000000000000      0.50000000000000000      0.12500000000000000    
  0.37500000000000000      0.50000000000000000      0.25000000000000000    
  0.37500000000000000      0.50000000000000000      0.37500000000000000    
  0.37500000000000000      0.50000000000000000      0.50000000000000000    
  0.50000000000000000     -0.37500000000000000     -0.37500000000000000    
  0.50000000000000000     -0.37500000000000000     -0.25000000000000000    
  0.50000000000000000     -0.37500000000000000     -0.12500000000000000    
  0.50000000000000000     -0.37500000000000000       0.0000000000000000    
  0.50000000000000000     -0.37500000000000000      0.12500000000000000    
  0.50000000000000000     -0.37500000000000000      0.25000000000000000    
  0.50000000000000000     -0.37500000000000000      0.37500000000000000    
  0.50000000000000000     -0.37500000000000000      0.50000000000000000    
  0.50000000000000000     -0.25000000000000000     -0.37500000000000000    
  0.50000000000000000     -0.25000000000000000     -0.25000000000000000    
  0.50000000000000000     -0.25000000000000000     -0.12500000000000000    
  0.50000000000000000     -0.25000000000000000       0.0000000000000000    
  0.50000000000000000     -0.25000000000000000      0.12500000000000000    
  0.50000000000000000     -0.25000000000000000      0.25000000000000000    
  0.50000000000000000     -0.25000000000000000      0.37500000000000000    
  0.50000000000000000     -0.25000000000000000      0.50000000000000000    
  0.50000000000000000     -0.12500000000000000     -0.37500000000000000    
  0.50000000000000000     -0.12500000000000000     -0.25000000000000000    
  0.50000000000000000     -0.12500000000000000     -0.12500000000000000    
  0.50000000000000000     -0.12500000000000000       0.0000000000000000    
  0.50000000000000000     -0.12500000000000000      0.12500000000000000    
  0.50000000000000000     -0.12500000000000000      0.25000000000000000    
  0.50000000000000000     -0.12500000000000000      0.37500000000000000    
  0.50000000000000000     -0.12500000000000000      0.50000000000000000    
  0.50000000000000000       0.0000000000000000     -0.37500000000000000    
  0.50000000000000000       0.0000000000000000     -0.25000000000000000    
  0.50000000000000000       0.0000000000000000     -0.12500000000000000    
  0.50000000000000000       0.0000000000000000       0.0000000000000000    
  0.50000000000000000       0.0000000000000000      0.12500000000000000    
  0.50000000000000000       0.0000000000000000      0.25000000000000000    
  0.50000000000000000       0.0000000000000000      0.37500000000000000    
  0.50000000000000000       0.0000000000000000      0.50000000000000000    
  0.50000000000000000      0.12500000000000000     -0.37500000000000000    
  0.50000000000000000      0.12500000000000000     -0.25000000000000000    
  0.50000000000000000      0.12500000000000000     -0.12500000000000000    
  0.50000000000000000      0.12500000000000000       0.0000000000000000    
  0.50000000000000000      0.12500000000000000      0.12500000000000000    
  0.50000000000000000      0.12500000000000000      0.25000000000000000    
  0.50000000000000000      0.12500000000000000      0.37500000000000000    
  0.50000000000000000      0.12500000000000000      0.50000000000000000    
  0.50000000000000000      0.25000000000000000     -0.37500000000000000    
  0.50000000000000000      0.25000000000000000     -0.25000000000000000    
  0.50000000000000000      0.25000000000000000     -0.12500000000000000    
  0.50000000000000000      0.25000000000000000       0.0000000000000000    
  0.50000000000000000      0.25000000000000000      0.12500000000000000    
  0.50000000000000000      0.25000000000000000      0.25000000000000000    
  0.50000000000000000      0.25000000000000000      0.37500000000000000    
  0.50000000000000000      0.25000000000000000      0.50000000000000000    
  0.50000000000000000      0.37500000000000000     -0.37500000000000000    
  0.50000000000000000      0.37500000000000000     -0.25000000000000000    
  0.50000000000000000      0.37500000000000000     -0.12500000000000000    
  0.50000000000000000      0.37500000000000000       0.0000000000000000    
  0.50000000000000000      0.37500000000000000      0.12500000000000000    
  0.50000000000000000      0.37500000000000000      0.25000000000000000    
  0.50000000000000000      0.37500000000000000      0.37500000000000000    
  0.50000000000000000      0.37500000000000000      0.50000000000000000    
  0.50000000000000000      0.50000000000000000     -0.37500000000000000    
  0.50000000000000000      0.50000000000000000     -0.25000000000000000    
  0.50000000000000000      0.50000000000000000     -0.12500000000000000    
  0.50000000000000000      0.50000000000000000       0.0000000000000000    
  0.50000000000000000      0.50000000000000000      0.12500000000000000    
  0.50000000000000000      0.50000000000000000      0.25000000000000000    
  0.50000000000000000      0.50000000000000000      0.37500000000000000    
  0.50000000000000000      0.50000000000000000      0.50000000000000000    
6
3
postwann            
0
  0.52846146016189788     -0.23251197509036811    
  0.54320026207801420      0.19875280287544819    
  0.37839538076788193E-01 -0.57503533330465406    
  0.52846145942599843     -0.23251197478026522    
 -0.61451842865751916      0.26322550225832064    
 -0.46497169675858946      0.59560259399235815E-01
  0.52846146006895767     -0.23251197661633802    
  0.71318164522350500E-01 -0.46197830450989608    
  0.42713215892881307      0.51547507246411350    
 -0.29482351497382518E-01 -0.68609283856924941E-01
  0.67708682996891469E-10  0.27624368738045102E-10
 -0.81060069588851391      0.58081844748929778    
 -0.27839036149308594     -0.64785074242201246    
  0.56083143184005801     -0.43066008149347379    
  0.42922489297551360E-01 -0.30755184144383396E-01
 -0.27839036226220654     -0.64785074321893998    
 -0.56083143078394804      0.43066008116969567    
  0.42922489353154465E-01 -0.30755184110168286E-01
  0.63918318452070133E-03  0.17238869637098753E-01
  0.26560943559732081E-09 -0.17701656304294485E-09
 -0.98752122252938079      0.15653832716806351    
  0.26196226930918217E-01  0.70651607481502343    
 -0.56897251665925408      0.41984553757755233    
  0.12047672989431855E-01 -0.19097541082056819E-02
  0.26196227267524151E-01  0.70651607498909863    
  0.56897251630681867     -0.41984553772803762    
  0.12047673433730423E-01 -0.19097542062645459E-02
  0.30279751168840095E-09 -0.24273006021879331E-09
  0.32986761179878983E-09  0.46142306171223164E-09
  0.97993906703416811     -0.19929732788024743    
  0.69154208543212792     -0.14754505602167167    
  0.70651175832843782      0.29002342377909784E-01
 -0.44327288572083278E-09  0.28735956276313959E-09
  0.69154208614491630     -0.14754505620346151    
 -0.70651175759521556     -0.29002342318728804E-01
 -0.86413354334621105E-10 -0.43104100585357587E-09
 -0.10899860461568437E-01 -0.13370870962953052E-01
 -0.48711058733038400E-09  0.98230413547895815E-10
  0.95454420089699066     -0.29756979246142790    
  0.44671879024676575      0.54799044527807184    
 -0.70623454563587651      0.35110786226005303E-01
  0.11645355453746691E-01 -0.36303253090222737E-02
  0.44671879100553474      0.54799044602855473    
  0.70623454455835744     -0.35110786284710038E-01
  0.11645356165293537E-01 -0.36303254233775823E-02
 -0.19256801762914808E-01  0.72149970471174829E-01
 -0.30787021636713834E-09  0.53749553429114750E-10
  0.63887738875232414      0.76567567513137569    
  0.18183448120227408     -0.68128408187218137    
 -0.67834510865443831     -0.19961942163020821    
  0.33829489029534365E-01  0.40543642881537910E-01
  0.18183448137628147     -0.68128408168911070    
  0.67834510868786424      0.19961942188042126    
  0.33829489114591112E-01  0.40543643315177035E-01
 -0.54090259948772212     -0.20188539065182975    
 -0.50809231706647529     -0.50683514375085448    
 -0.76872475939348470E-01  0.38172977844125389    
  0.54090260026613091      0.20188539051477669    
 -0.21484870899311670     -0.58835608955418883    
  0.51598429562795001     -0.90022313433159959E-01
  0.54090259904372828      0.20188539169181594    
 -0.29324360841410241      0.81520946080392134E-01
 -0.59285677321537944      0.47175209050545125    
  0.17266991798794198      0.98497974569126934    
  0.30608879013370259E-09  0.43461727556456390E-09
  0.78470744347025445E-10 -0.14683677663119813E-08
 -0.82686718390389132E-09 -0.28526411056084422E-10
 -0.52110211328829481     -0.47796713947390101    
 -0.58465783384557402     -0.39771248211819077    
  0.11116387359731475E-08  0.72427754693515102E-09
 -0.52110211466335066     -0.47796714029627030    
  0.58465783272999805      0.39771248096816436    
  0.43089384663789143      0.55815971891199390    
 -0.68909213834987590E-01  0.70374108873667784    
 -0.52689274802755502E-01  0.34729968049507223E-02
  0.43089384695078936      0.55815971820958465    
  0.68909213171777159E-01 -0.70374108918863354    
 -0.52689274491184664E-01  0.34729971746692866E-02
  0.45632915495089563E-01  0.59110741538642313E-01
  0.21989090206638336E-09  0.20521902779992814E-09
  0.99504860628337999     -0.65588325117159146E-01
  0.42235843456264029E-01 -0.56211772321539968E-01
 -0.38432645192106274      0.58936368207475720    
 -0.11355837194057104      0.69792871766912457    
  0.59772375756123630     -0.79551181634820989    
  0.54313890562786411E-01 -0.83290221449971794E-01
 -0.82708199576465276E-10  0.40276793163026336E-09
  0.42235843619713255E-01 -0.56211772708144613E-01
 -0.38432645030627960      0.58936368101773384    
  0.11355837144516256     -0.69792871949050994    
 -0.87889905252632756E-02  0.17364232858128475E-01
  0.69375717338719098E-01  0.72766623317520207E-01
 -0.65391134567290465      0.74960870955302383    
 -0.44996896950951032      0.88899474304997628    
 -0.58126387112742567E-01 -0.60967453957914509E-01
  0.72180593673782170E-02 -0.82743946081487631E-02
 -0.37342573277149044E-01  0.73776978739234597E-01
  0.68408055007092872      0.71751663539493671    
  0.66929440358449555E-01 -0.76724302464359351E-01
 -0.39356877791601012E-09  0.36842941419920461E-09
 -0.24575372706838110E-09  0.29868505572502011E-09
 -0.64827973766733771      0.76140224699561310    
  0.71949260890150857      0.69007898087949926    
 -0.59712793139100669E-01  0.50554606317725605E-01
 -0.40395480560856436E-09 -0.34505520580321702E-09
  0.56465677620826604E-01  0.54157299925625187E-01
  0.76086775447212340     -0.64417301582737851    
 -0.33199205995684793E-09  0.21859302415081504E-09
  0.12839342475868711E-01  0.14625806568069851E-01
  0.10048607918687436      0.32433771148744372E-02
 -0.39492409513451260      0.91298862235174838    
 -0.65733441980576157     -0.74879582473779593    
  0.84192177865347440E-01  0.27174613884265245E-02
 -0.43592844651370224E-02  0.10077828273653644E-01
 -0.54551670502731797E-01 -0.62141980224732864E-01
 -0.99084484775127146     -0.31981380038897375E-01
 -0.40421456113611018E-01  0.93446639534731202E-01
 -0.16577165848287757E-01  0.68328818764170240E-01
  0.51133847999411908      0.48331080178150937    
  0.38008780207569948      0.59626609879366488    
  0.23460086735507088     -0.96699285070738550    
  0.72263521259795016E-01  0.68302585691819184E-01
  0.90485216155789598E-09 -0.31841924964501057E-09
  0.16577164423082612E-01 -0.68328818484405390E-01
 -0.51133847776579977     -0.48331079979421093    
  0.38008780374259704      0.59626610132454949    
 -0.30804954453713501     -0.63428483860953322    
  0.40049908707518461      0.58275250457995875    
  0.41737476853508780E-01 -0.32345081607173011E-01
  0.30804954402830254      0.63428483930318325    
  0.40049908613139484      0.58275250464124906    
 -0.41737478179555428E-01  0.32345081721526746E-01
  0.32623344280964611E-01  0.67172614081622811E-01
  0.82097370198268394E-09  0.36677455008043046E-09
  0.78822150582833728     -0.61084401861283344    
  0.80854191930038000     -0.58843858195571963    
  0.41175758758005140E-10 -0.45132115441082103E-10
  0.40102439678224052E-09  0.72724813317178517E-09
  0.34540118096285902E-12  0.30487675347774408E-11
 -0.44452840554723261      0.89253246201725578    
  0.55354692320350375E-01  0.52116781799846447E-01
  0.49078560557506566E-09 -0.67272790986246707E-09
 -0.33894837881430724E-01  0.68054690301587312E-01
 -0.72597288263346760     -0.68350791712591175    
 -0.69294401470858347     -0.14028470564796638    
 -0.64511225619640700      0.28953441450931594    
  0.10703806639077065E-01  0.58499644594014865E-02
 -0.69294401521095528     -0.14028470512562929    
  0.64511225558099194     -0.28953441491320919    
  0.10703807263874042E-01  0.58499642107149655E-02
 -0.16907712355310713E-01 -0.34229219771830716E-02
  0.41924306655394506E-09  0.20497566176889663E-09
 -0.87736754401800987     -0.47950871271735218    
 -0.28822247196366738E-01 -0.77503473752895000E-01
 -0.92808181386611999     -0.34851179044425662    
 -0.59257828581269711E-01 -0.82792983198667819E-01
 -0.34730110759841726     -0.93389810330546785    
  0.78859196723189320E-01  0.29613078399617302E-01
 -0.63907087170191985E-02 -0.89288759274509365E-02
 -0.67836361501113435E-02 -0.18241304962382250E-01
 -0.94120993478250300E-01 -0.35344164424345625E-01
  0.57895847254353328      0.80890070637360922    
  0.41871965095161548E-02  0.27399822809785795E-01
 -0.42878617969748500     -0.56158181048894318    
 -0.45268060585133130      0.54321291259491999    
  0.15094852873340189      0.98776412968123528    
  0.23788402561207820E-01  0.31155700792670462E-01
 -0.24475998661491404E-10 -0.33377557838268087E-09
  0.41871967652955602E-02  0.27399822388625893E-01
 -0.42878617887105391     -0.56158180993445961    
  0.45268060669993931     -0.54321291313259013    
  0.12148477602465220E-09 -0.67122088505172952E-10
 -0.31175619505898534E-09  0.33132673734043947E-09
  0.95651690884588758     -0.29167688131202113    
  0.99543711477788155      0.91397188138317029E-01
  0.20673062981348602E-01  0.18003582700822897E-01
 -0.12843683625904560E-09 -0.29267542622306298E-10
  0.27298757308658765E-01  0.25064661376371874E-02
 -0.75383410705045628     -0.65649267667228672    
 -0.15291944373615796E-09 -0.43069267272149514E-09
  0.27143457671825539E-01  0.56138751369789490E-02
  0.67803769514870960     -0.19873751772490936    
  0.41812203100393552     -0.57024027155811829    
 -0.97852216994054697     -0.20238032802814682    
  0.37616495523045738E-01 -0.11025653115719229E-01
  0.19086914477708759E-09 -0.10016216286336187E-09
 -0.27143457382519498E-01 -0.56138752169114904E-02
 -0.67803769533879088      0.19873751770504713    
  0.41812203096841971     -0.57024027137805122    
 -0.39351910834684409E-01  0.72725082025563867E-01
  0.38569756436466368     -0.91325446080924177    
  0.46433382310665716E-02 -0.10170844420838862    
  0.47418100210883379     -0.87631963567865356    
  0.32772757614185750E-01 -0.77599315338389430E-01
 -0.50076509291003862E-03  0.10968829235193333E-01
  0.92619096107158013E-02 -0.17116657135397180E-01
 -0.39115343098954480E-01  0.92617283521011465E-01
  0.45366166878280864E-01 -0.99370779241640506    
  0.69238935357589559      0.14299716766285175    
 -0.18970983867636662     -0.68118292450973283    
  0.83706088686018743E-02 -0.88727937022865192E-02
 -0.69238935287699233     -0.14299716773248419    
 -0.18970983864646498     -0.68118292520180690    
 -0.83706095390820474E-02  0.88727939938342808E-02
 -0.16894178797429323E-01 -0.34891060442093901E-02
 -0.32313229179503225E-09 -0.41180567387994799E-09
  0.68612044735750943     -0.72728340045659357    
 -0.33016527239727156     -0.94392313929834193    
 -0.14858476707030948E-10  0.29042629174720580E-09
  0.94713619134346801E-10 -0.32825035043036634E-09
 -0.26144701505891558E-09  0.13929475087216311E-09
 -0.99621686585608593      0.84015361011520809E-01
  0.18045869191250539E-01 -0.12950749133304584E-01
  0.10522525740305045E-09 -0.32008942706667214E-09
 -0.22133482582362841E-01  0.18666137141259028E-02
 -0.81223546645774958      0.58290665781939821    
 -0.17444246266406060      0.68525165243210384    
  0.70414106800252863     -0.64694330594190233E-01
  0.67596505458154958E-09  0.45826820225726671E-09
 -0.17444246273453226      0.68525165249992881    
 -0.70414106792448250      0.64694330535240013E-01
  0.43364110005227182E-09 -0.12606800906548429E-09
  0.81701823751729748E-09  0.57205941545354043E-10
 -0.40969542451235421E-09 -0.17953840827745012E-09
 -0.11129261071618100      0.99378768094597403    
 -0.22552405302717553E-01  0.74918455171044215E-01
 -0.89715555218601906     -0.43473040987679262    
 -0.22367560206244459E-09 -0.19083552193301439E-09
 -0.28736551933349913      0.95462017178982594    
  0.70408640180657359E-01  0.34117580483741521E-01
 -0.11508734196483780E-09 -0.40776851095588635E-10
 -0.14160014312152086E-09  0.22909768241336041E-10
 -0.89952497013229084E-10 -0.26961065142820985E-09
  0.54860698584745134E-01  0.99849401788432945    
  0.27186683315737412E-01  0.35197616190538179E-02
 -0.21542066700636492      0.97613648213503756    
 -0.94108448155848848E-10  0.17387799101282883E-09
  0.99135042300260157      0.12834654004295987    
  0.59076719110799742E-02 -0.26769458047488669E-01
  0.22512402160506843E-09 -0.13044644272895186E-09
 -0.10408894308397703E-09 -0.23331705306408825E-09
 -0.19922806265558021E-09 -0.42706831878411462E-10
  0.87355749235859981      0.48672097504027273    
  0.43415174488377917E-09 -0.35316777831290738E-10
  0.76504569796791722     -0.23003752967154500    
 -0.50137520005768432     -0.33228109144294582    
 -0.46890679187482731     -0.88324765526643512    
  0.25577726276398567E-09 -0.10630922409187426E-09
  0.45423509776425970E-09 -0.54167906774974461E-09
 -0.48514397862478658E-09  0.38906192919145630E-09
  0.59832748782791023     -0.61579479316885906E-01
  0.57084677788976357      0.55887936194627619    
  0.19986840356005887E-01 -0.18762482360845358E-01
 -0.74682655930032496E-01  0.99683047524214508    
  0.77820327238812805E-10  0.72871706840075580E-09
 -0.72881131355470508      0.68416559742719163    
 -0.20480897441984749E-02  0.27336968744854497E-01
  0.12031085588021742E-09 -0.76622496067538362E-10
  0.37500154532876483E-10  0.14790141092340695E-09
  0.44944599102475785E-11 -0.73084127044643579E-09
  0.17884346112716026      0.98387754136988936    
 -0.60789417685692619E-01  0.49254772086929181E-01
 -0.58039267050471233      0.81056952949670624    
  0.22516789425153107E-09 -0.20532914997236637E-09
  0.77458624230040607     -0.62761036269570802    
 -0.45549134345624714E-01  0.63613380952949827E-01
  0.20713153063729795E-09 -0.49019499051257983E-10
 -0.17294095155158700E-09 -0.82722824560385993E-10
  0.23947688900696459E-09  0.20991951686885456E-09
  0.57747875163822560      0.81640571495204539    
 -0.53532857096237552     -0.46197761999958753    
  0.24415878424720119E-01  0.70668512409109163    
  0.28155617959647793E-09 -0.20066456471191313E-09
  0.53532857062435890      0.46197761980876584    
  0.24415878361531019E-01  0.70668512447407406    
  0.48111291445024446E-09  0.18480997545798077E-09
 -0.30501574942458492E-09 -0.34254009857649505E-10
  0.24869972006205429E-09 -0.47865049953584130E-09
  0.88094303527822493      0.47322232470032743    
 -0.17664296076002817      0.98427499430491106    
 -0.48280554215788653E-09 -0.19828239873968637E-09
  0.27632792775166643E-09 -0.18843677246912559E-10
  0.49816596478519904E-09  0.15571671637475857E-09
  0.49259282010510230     -0.87025991150971838    
 -0.61387380090677575E-10 -0.90005833590156066E-10
 -0.25988143679002765E-09  0.95779210091817656E-10
 -0.53647357652061568E-10  0.94821992749053160E-10
 -0.56362271886657134     -0.82603234245243318    
  0.78641694228484514E-02  0.70695782146223718    
  0.70589158086939763      0.41437615587423364E-01
  0.87957565643933524E-03  0.12166344210601589E-01
  0.78641693505349022E-02  0.70695782137069907    
 -0.70589158096710181     -0.41437615663722178E-01
  0.87957566442465674E-03  0.12166343647051377E-01
 -0.19188468312332049E-03 -0.17249647420808745E-01
 -0.39724491486318556E-09  0.11972722850582888E-10
  0.72096900118531107E-01  0.99724843937577734    
  0.52300569030893515E-01 -0.64048113980976082E-01
 -0.90129955660096850      0.41286248379509405    
 -0.16994389509970138E-01  0.10038605005253470    
  0.63020919945957687     -0.77176427201325004    
  0.76583506067043242E-01 -0.35080963090917974E-01
 -0.18327736854489229E-02  0.10826214855168706E-01
 -0.12309520822528673E-01  0.15074436374998862E-01
  0.91404882943077914E-01 -0.41870260886419715E-01
 -0.16603790143357888      0.98078778590482851    
  0.26903725458118141E-01 -0.66687654898553604E-02
 -0.61830871990773784      0.34194450463797971    
  0.53391758176552107     -0.46360760955674007    
  0.96987983258681676     -0.24040911906907197    
  0.34302823485620318E-01 -0.18970559051125109E-01
  0.25608573174426247E-09 -0.81826316826611454E-09
 -0.26903726595050890E-01  0.66687651339756336E-02
  0.61830871935198428     -0.34194450485049810    
  0.53391758174259696     -0.46360761010673940    
 -0.40689379555397783E-09 -0.92726362126352814E-10
  0.42442652302941453E-09  0.23995637195093037E-09
 -0.94485032321158846      0.32750246827612922    
  0.98562359769603058      0.16671718320133183    
  0.16053269358990183E-01 -0.22221544343997354E-01
 -0.38876880258829536E-09  0.14562784437045890E-09
 -0.27029631811419871E-01 -0.45720339329012576E-02
  0.58537539579222531     -0.81029879767339297    
 -0.97020255944842573E-10 -0.47970404057597280E-09
  0.16186838708052823E-01  0.22500425740517711E-01
 -0.63131670029135889     -0.31728684495887038    
  0.43227712293970921     -0.55958599698918454    
 -0.58353581786816899     -0.81114079140454909    
 -0.35024485927833061E-01 -0.17602589866822522E-01
  0.75804913202779970E-09  0.19423387276196644E-09
  0.16186837591825463E-01  0.22500425939065163E-01
 -0.63131669904200283     -0.31728684447272054    
 -0.43227712389859135      0.55958599795791020    
  0.82688971970494379E-01  0.21066301786786912E-03
  0.53111367254759378     -0.83708696564077634    
  0.94684414857613766E-01  0.37430334034721097E-01
 -0.99638209684693935     -0.25384407482943678E-02
  0.45128777795087255E-01 -0.71127356397327174E-01
 -0.10211317427626401E-01 -0.40367046592948248E-02
  0.19461769669095359E-01  0.49581933443320799E-04
  0.53862650642548464E-01 -0.84892792625354874E-01
 -0.92508189616826608     -0.36570035694640846    
 -0.17008445816839374      0.68623792054869981    
  0.68912589809299463     -0.15844714102523835    
  0.16162766350469816E-02  0.12090542537555492E-01
  0.17008445754029217     -0.68623792057649546    
  0.68912589806397373     -0.15844714164658999    
 -0.16162764949889513E-02 -0.12090543325766664E-01
 -0.41500314923538601E-02  0.16744085381005532E-01
 -0.48677269834917704E-09  0.29611066664348410E-09
 -0.13248260921411617     -0.99103520174572446    
  0.64788234007388601     -0.76174042391118113    
  0.41480068969673602E-09  0.21890127282226553E-09
 -0.60942024402204143E-10  0.39185751419636531E-09
  0.36165724246610962E-09  0.30397316563438065E-09
  0.44615822406726480     -0.89467841361890199    
  0.59879275571017914E-02  0.21389717741904759E-01
 -0.11672522551076844E-09  0.37473084833694725E-09
 -0.99125362966315713E-02  0.19877548281300172E-01
  0.26951356645890157      0.96274039189861282    
 -0.31514903260382360     -0.63078749608669749    
 -0.67001745378171229     -0.22600135452476544    
 -0.17690071723901652E-01  0.49752213747663358E-01
 -0.31514903174860642     -0.63078749750696161    
  0.67001745249847167      0.22600135558951731    
 -0.17690071970142392E-01  0.49752213515270441E-01
  0.33375201346118530E-01  0.66802236051451955E-01
  0.89415360978014952E-10  0.18274625401132011E-09
 -0.33408092385370558      0.93958155234694052    
  0.75225172870550718E-02 -0.69907379001628661E-01
  0.60511443964396017      0.35901655271731525    
  0.48456347681556006      0.51497401569453238    
  0.10645904551202780     -0.98933271041441739    
 -0.85516153751012389E-01 -0.50737039530939415E-01
 -0.36301078557823394E-09 -0.18436717513820268E-09
 -0.75225170887110110E-02  0.69907378467294404E-01
 -0.60511443928759867     -0.35901655315914388    
  0.48456347651146986      0.51497401616681682    
 -0.62219323169060469E-02 -0.18440457847597104E-01
 -0.97535869933041738E-01 -0.24386998938194980E-01
 -0.11641758763964986     -0.98790698485230433    
 -0.31854359164800555     -0.94409411967489432    
  0.81720347367603391E-01  0.20432627375219108E-01
  0.12850504652475311E-02  0.10904798266877994E-01
  0.26435683954531445E-01  0.78349633705249944E-01
  0.96175425132014702      0.24046846153182105    
 -0.11915626848583208E-01 -0.10111471913157649    
  0.60263905737527873E-09 -0.22956268033334908E-09
  0.75743561674165414E-09  0.58510425988759590E-09
  0.90290236449537520      0.42984569346296592    
 -0.52535895504945307      0.84727597770579643    
  0.46514662334769731E-01 -0.62910826889455679E-01
  0.59835991928881931E-09 -0.64158966087629355E-10
  0.41230096107810470E-01 -0.66494098437180293E-01
  0.59269554597400442     -0.80161749221841383    
 -0.44128030319101857E-09  0.88036869516996774E-09
 -0.67898892996901914E-02  0.18238978755375085E-01
  0.85995573216467350E-01 -0.52083901342448335E-01
 -0.98590243060777316     -0.13232408317106623    
  0.34762121341186186     -0.93377899880723403    
  0.72051319851563322E-01 -0.43638454242242206E-01
 -0.10882671962573953E-01 -0.14606308812634453E-02
 -0.28848812608525027E-01  0.77493589676553273E-01
  0.84796094873612093     -0.51357428931523907    
  0.10090954690546675      0.13543695446115587E-01
 -0.83078052464006652E-02 -0.69818409123652780E-01
 -0.60893442314302593      0.35249856580582201    
  0.60610904238785801     -0.36418652950296054    
  0.11757247862057189      0.98807360688035872    
 -0.86056002573118795E-01  0.49815901864604648E-01
  0.16197850117068290E-09 -0.65774659235434559E-09
 -0.83078058554020388E-02 -0.69818408308608582E-01
 -0.60893442254397612      0.35249856567068771    
 -0.60610904282087275      0.36418653005709356    
  0.19978996579735811     -0.67623645898518658    
  0.64237772052149911      0.29555179563464973    
  0.36685894211182977E-01  0.37978501109543018E-01
 -0.19978996509307403      0.67623645874581639    
  0.64237772114546376      0.29555179520803626    
 -0.36685894986490809E-01 -0.37978501093800673E-01
  0.21158339834907159E-01 -0.71615413650441509E-01
 -0.20422114989067748E-09 -0.49995946071937579E-09
 -0.69282123282965669     -0.71723238669450917    
  0.99329514597515234      0.11560602485249165    
  0.54313494165937864E-09 -0.96746552838067901E-10
 -0.39092359963737595E-09  0.14819261099324777E-09
 -0.33463520829517255E-09  0.41637451397833887E-09
  0.32694474015388925     -0.94198027363520720    
 -0.58279890225076299E-01 -0.48823717220213850E-01
 -0.13592438500217432E-09 -0.41870499354213815E-09
 -0.24929203267793631E-01  0.71825035971306350E-01
 -0.76433664396823553     -0.64031960279186162    
 -0.56246507606910190      0.13025502553457549    
 -0.42643249312604387     -0.86043774554846353E-01
  0.41598860716050051      0.55169914165683820    
 -0.56246507600786178      0.13025502538418138    
  0.60174079312043827     -0.41207428370029314    
  0.16514129055959781     -0.32786860690468606    
  0.56246507568916737     -0.13025502596514088    
  0.17530829944917828     -0.49811805871557469    
  0.58112989808860982      0.22383053436469480    
  0.74444475309644029E-01  0.58705064586135761E-02
 -0.79761391118963849E-10 -0.12835450672039338E-09
 -0.56134921554792783     -0.82420301834773435    
  0.70295019141021187      0.55432908517735538E-01
 -0.67067166307209203     -0.22405249388499301    
  0.29724259495655478E-01  0.43642751781657670E-01
 -0.70295019092410793     -0.55432908810218041E-01
 -0.67067166341479467     -0.22405249435893335    
 -0.29724259249845127E-01 -0.43642751707660118E-01
  0.15192967879129146E-01  0.81707330582953767E-02
  0.20176024746444261E-09 -0.78446241962756278E-09
  0.13564398176991879      0.99060745154572616    
  0.62266707005268296      0.33486852053541877    
  0.23876014467308811E-01 -0.70670357022600105    
 -0.16548446637722769E-02 -0.12085324925364866E-01
 -0.62266707058013726     -0.33486852030295755    
  0.23876014005895740E-01 -0.70670356990620142    
  0.16548442751629299E-02  0.12085323855745934E-01
  0.36327485021004993E-09 -0.11930920069167941E-09
  0.12901062182282110E-09 -0.85336092286130387E-10
  0.95014379427959250      0.31181207512214326    
  0.36483637487632387      0.60571810206081511    
  0.27950879133820056     -0.64951892656611876    
 -0.80695293245478080E-10 -0.24079521339131364E-09
 -0.36483637482776260     -0.60571810275530102    
  0.27950879148029961     -0.64951892588459237    
 -0.13053771770654758E-09  0.29764914179775334E-09
 -0.39487733881033446E-02 -0.16792687044546707E-01
 -0.72791863539793397E-09  0.22256181232215753E-10
  0.50610900016984217     -0.86229698642499997    
  0.16183615693122211      0.68822980475137097    
 -0.65102192603129561      0.27598994986283337    
  0.61744851289272868E-02 -0.10519947539249343E-01
 -0.16183615760885098     -0.68822980544479473    
 -0.65102192505359868      0.27598994999948406    
 -0.61744852931915235E-02  0.10519948572827773E-01
 -0.74652560287032169E-01  0.18542133333694284E-02
 -0.63681732598208745E-10 -0.79265579704406513E-10
  0.65545967564644547     -0.75152922147908663    
  0.70491504975992425     -0.17508613035974230E-01
 -0.31559378822992706      0.63277212366290436    
  0.34707546109208225E-01 -0.39794568478858670E-01
 -0.70491504929354087      0.17508612352553590E-01
 -0.31559378904215984      0.63277212380432424    
 -0.34707545984983365E-01  0.39794568459194109E-01
  0.49623510089602563      0.29510008142636202    
 -0.44926158526761939      0.47882793945349494    
 -0.23158546855986903     -0.42652393805543359    
 -0.49623510126681886     -0.29510008101914537    
 -0.35960810889575333E-01  0.61500618531345319    
  0.44680843398221765     -0.29580923224591804    
  0.49623510096328571      0.29510008066082705    
  0.41330077419846639      0.13617824552714705    
  0.67839390345267214      0.13071470543237859    
  0.17642522811994432      0.98431404484687723    
  0.91362658180894091E-10  0.46995522491485409E-09
  0.38744367361264354E-10  0.73992622601438180E-09
 -0.36560208508193564E-09  0.63226737247707641E-09
  0.66504996013149342     -0.24022603959922309    
  0.14885298398246669     -0.69126173739552899    
  0.27449260753880675E-09  0.41160845112481877E-09
 -0.66504996070477018      0.24022603979201226    
  0.14885298386831258     -0.69126173680157277    
 -0.61426540961572737E-09  0.50335033252092111E-11
 -0.67674455750841656      0.20498000939504066    
 -0.60977750469798897      0.35801032721897647    
 -0.11895089383284662E-09  0.80762968488950446E-09
 -0.67674455683644097      0.20498000981410877    
  0.60977750484613580     -0.35801032799693611    
 -0.52403465672547511     -0.85169694055492007    
  0.69219389218349688E-11  0.77392811293910485E-09
  0.57555486907537743E-09 -0.33687623371408571E-09
 -0.17741812066566387E-09  0.34279041338399860E-09
 -0.67474038368326633E-01  0.35036482096264955E-01
  0.30866535559567121      0.94812731071496292    
  0.30054854360245431E-09  0.24310506493123362E-09
 -0.88491725242653907      0.45950098522903626    
 -0.23535418406966678E-01 -0.72293741166308517E-01
 -0.50825679494645315      0.86120556802122450    
  0.25255793144769898E-09  0.30031925182120094E-09
 -0.12494743025382538E-09 -0.35891912592080884E-09
 -0.48949799792182896E-09  0.42193706582985065E-09
 -0.21610878599407569E-01 -0.51327622742734016E-02
  0.21246009285777537      0.97691726037595683    
  0.37002556964733705E-09 -0.17489835877460530E-09
 -0.97269470177516026     -0.23102303308573013    
 -0.47203394997139894E-02 -0.21704693441972803E-01
 -0.65752669558282462      0.75343124742469370    
 -0.38837822388749265E-09  0.73974275488205536E-10
 -0.23050747691012907E-09 -0.61294664240378558E-09
 -0.18150210251674415E-09 -0.22959660902607158E-09
 -0.35136488010127823E-09  0.85933739268395139E-09
  0.47507368847589010     -0.87994601568386754    
 -0.38996547043893169E-09 -0.66157584881622187E-11
 -0.29433370033699485      0.95570271154053432    
 -0.36637605976965166E-09  0.85304507164795970E-09
 -0.79602339392719645     -0.60526585590187199    
  0.31308953365540556E-09 -0.23257499596446129E-09
 -0.70503335494815289E-10  0.28405440239434880E-09
 -0.19032961937822926E-09  0.41633120083967680E-09
 -0.21592340731722479E-01  0.52101909677214507E-02
 -0.21967330155605663     -0.97532059617095423    
  0.14600655394171989E-09 -0.47075512287243374E-10
  0.97186037614730336     -0.23450806810560046    
 -0.48805989572990767E-02 -0.21669218306458793E-01
  0.55247076407545526      0.83353227582492728    
 -0.71701004309820660E-10 -0.14349016663251342E-09
  0.42919956536269383E-09  0.15214557562289443E-09
  0.65836447956150493E-09 -0.28781581530035043E-09
 -0.69373673919439161E-01 -0.31106175037510966E-01
 -0.90253202110261133     -0.42385805421850159    
 -0.12440862879663482E-09  0.33367013413625007E-09
  0.90983084844658313      0.40795529958125193    
 -0.68817145530782595E-01 -0.32318744399191357E-01
  0.46221863572340882     -0.88676599663608535    
  0.35645311579151477E-09  0.17024859410837021E-09
  0.67316381820609437E-09 -0.18412439955329728E-09
 -0.91402520293909521E-10  0.14303623632141532E-09
  0.49468626302776486      0.50525785646924337    
  0.93589514488814068E-02 -0.70704484276140833    
  0.96929273246491719E-09  0.16981972966094477E-09
 -0.49468626328929749     -0.50525785551597335    
  0.93589506017735663E-02 -0.70704484327085082    
  0.23113473193672529      0.97292175209136789    
 -0.38411500502984121E-09  0.64447700584468926E-09
 -0.55751957499622074E-09  0.35136385119020697E-09
 -0.69681855170159634      0.93731629943142589E-01
 -0.48272004895291654     -0.52214906098889646    
  0.80248431135080235E-09 -0.18514283880769016E-09
 -0.55334120392124126E-09 -0.46747830756879339E-09
  0.56327193450800620E-09 -0.26040697529384950E-09
 -0.46120001448951575     -0.88729620005659637    
  0.61977426811686287     -0.34862321226920612    
 -0.63433650458790170     -0.30324727763742670    
 -0.34148684085950814E-09 -0.33902441928453910E-09
  0.65857619998961003     -0.25197056738563811    
 -0.70431850220865055      0.62733149474613809E-01
 -0.20112659598775270E-01 -0.48823173862663188E-01
  0.69745140681455986E-01 -0.26684417800127886E-01
  0.19864637865571473E-09 -0.11860030928685530E-09
  0.37983202009437272      0.92203643838463312    
  0.65857620063361932     -0.25197056799472084    
  0.70431850133928786     -0.62733149727526666E-01
 -0.20112659626365610E-01 -0.48823174237259494E-01
 -0.67303535629938960E-01  0.20343647229325371E-01
 -0.16506132159128981      0.68396719902605452    
  0.67231867865531136     -0.21906071124527041    
 -0.67303536206074530E-01  0.20343646381315673E-01
 -0.16506132152989192      0.68396720029617064    
 -0.67231867739177631      0.21906071110554048    
 -0.95248299203432873      0.28790430712395149    
  0.23326842510043307E-01 -0.96659806762292313E-01
 -0.97844545335743074E-10 -0.71861838859005908E-09
  0.10679130704666508E-01  0.16270190962079933E-01
  0.54372416364322336E-01 -0.84567203562133320E-01
 -0.32643309253142627      0.93965669346533687    
  0.45373384498855390E-01  0.69128621440515167E-01
  0.53614022235243708     -0.83387647953400534    
  0.33411233023279197E-01 -0.96176182293590665E-01
  0.54673830845175564      0.83298316237581971    
 -0.45555883330785585E-01  0.70854560687301171E-01
  0.36032609454718636E-02 -0.10372198610568477E-01
 -0.69612761394991518E-09  0.68921187078396585E-10
  0.49524475105104433E-09 -0.37446838772126286E-09
 -0.48970218603594445      0.87188976883068237    
  0.12147957083227591E-01  0.77290445700071042E-01
 -0.41906214593364896E-01 -0.99605345404784662    
 -0.32045958423029454E-09 -0.58039083730195720E-09
  0.15479076203260358      0.98484437051320672    
  0.32887935847569611E-02  0.78170133008511680E-01
 -0.60528766327649198E-09 -0.26252134458930817E-09
  0.56929161569093211E-04  0.19461749929849073E-01
  0.23379546005487924E-01 -0.97782249340444757E-01
 -0.22986275513872606      0.96782042724426698    
 -0.24188160224690631E-03 -0.82688886001192577E-01
 -0.23053445427122085      0.96418368924536646    
 -0.23527020846642901E-01  0.99058809312051063E-01
 -0.29146111275874559E-02 -0.99638106752180366    
  0.19588533931415564E-01 -0.81926776257741141E-01
 -0.25372902802416513E-02  0.10683077953237887E-01
 -0.61748055870878601E-01 -0.33627480688010879E-01
 -0.11306126903063816     -0.69445915617891285    
  0.96621930494470848E-01 -0.70047426971354121    
  0.61748056126540385E-01  0.33627480456432393E-01
  0.11306126798930144      0.69445915631273214    
  0.96621931499953920E-01 -0.70047426959883496    
  0.87386157011811316      0.47589777949912127    
 -0.15978076926512316E-01 -0.98142553442634339E-01
 -0.31134146118529830E-09  0.40362421567777799E-10
  0.31307825901653374     -0.63181783910856248    
  0.70013234724254203     -0.99069151672801392E-01
 -0.22987533547950141E-01 -0.47537298495220572E-01
 -0.33155900314844916E-01  0.66911352696722493E-01
 -0.34924509957252505E-09  0.96539132237206112E-10
 -0.43412465951518192     -0.89775238075731911    
 -0.31307826054967935      0.63181783912861711    
  0.70013234677755198     -0.99069150229703890E-01
  0.22987533316441568E-01  0.47537298099248511E-01
  0.66755028537971672      0.74456471611905917    
  0.52008681143977193E-09  0.28001061259029642E-09
  0.68895222228869414E-09 -0.60438997337906722E-09
 -0.80860953729205726E-09  0.35098809572510801E-09
 -0.75996151681893928E-01 -0.22103708765049425E-02
 -0.35497443605311785     -0.93177939928874742    
  0.61286244626078592E-09  0.19025308152902957E-09
 -0.99668417531632503     -0.28988857586019771E-01
  0.27066438703930197E-01  0.71047228698630518E-01
 -0.72234524115219551E-01 -0.99241871900669831    
  0.59057903239054368E-01  0.79996398393699389E-01
 -0.15372625324171846E-09  0.32050125270937903E-09
 -0.51041740193897567E-02 -0.70125439343415766E-01
 -0.41789520010676601     -0.56605650970002075    
  0.48356412313301156      0.51591252992832259    
 -0.51041744704818951E-02 -0.70125439452488059E-01
 -0.41789519962777250     -0.56605650953863862    
 -0.48356412322720471     -0.51591253038579132    
 -0.23237811144185455     -0.52852033781674645    
 -0.21547158145524331      0.22987417080960157    
  0.21098174814081150      0.72310665255410467    
 -0.23237811062450467     -0.52852033716293434    
  0.44594463768023973     -0.67275620779616108    
  0.23385326975629266E-01 -0.12104651331600960    
 -0.23237811018814275     -0.52852033702586354    
 -0.23047305607001958      0.44288203689185446    
 -0.23436707461105838     -0.60206014103075411    
 -0.46835121536099464E-01  0.65197857657062513E-01
 -0.31937216917071396E-09 -0.19166348681550873E-09
  0.94829551750978414      0.30706892095827765    
 -0.41121149899566845      0.57243598626085745    
  0.68494171467502263      0.17565547992748687    
 -0.54003275104243256E-01 -0.17486877216824275E-01
 -0.41121149917026550      0.57243598631206460    
 -0.68494171447134622     -0.17565547997867492    
 -0.54003275640766971E-01 -0.17486877241473051E-01
  0.64853275686920984E-11  0.26921000404436425E-09
 -0.27443125779186527E-09  0.11911855979395414E-09
 -0.10026406483030617      0.99496086219695179    
  0.68444737872566064      0.17757191624160637    
 -0.20440705163325851     -0.67691783663931582    
  0.29650274081846024E-10 -0.24858858924702129E-10
  0.68444737926505417      0.17757191595253177    
  0.20440705190085032      0.67691783608894984    
 -0.38354494843041908E-09 -0.11582060291871150E-09
 -0.79340528960630055E-01 -0.12221689636514354E-01
  0.26781940446839387E-09 -0.45255798356241609E-09
 -0.51735611999155628     -0.85199668771302206    
  0.69660837809898291      0.10730621018541622    
 -0.61848560221759341     -0.34274707883647498    
 -0.29462255229803769E-01 -0.48519275894529715E-01
  0.69660837829636124      0.10730621077990107    
  0.61848560172638767      0.34274707913526614    
 -0.29462255829871935E-01 -0.48519275532342629E-01
  0.47879610843373027     -0.32262613034176268    
  0.64324656768495680     -0.70597405963581911E-01
  0.49286979817092236      0.70681596282921186E-01
 -0.47879610889668134      0.32262612975766752    
  0.68273716478864188      0.20035816566855294    
 -0.13179883857206431     -0.37818289480136608    
 -0.47879610821736784      0.32262613010775165    
 -0.39490597416469160E-01 -0.27095557092395139    
  0.62466863752160640      0.44886449127265787    
 -0.39870338535512562      0.91167337945572013    
 -0.52405403689264676E-02 -0.99296507666654099E-01
  0.94230029464505506E-09 -0.91167363453411211E-09
  0.28172837406398570E-01 -0.64419881988026922E-01
 -0.37082190645653060E-01 -0.70262456648982352    
  0.68877452309827858     -0.15996767195207987    
  0.28172835941070905E-01 -0.64419880862285062E-01
 -0.37082189958389813E-01 -0.70262456631663683    
 -0.68877452359016245      0.15996767146556473    
 -0.81599167472718082     -0.57806365287563899    
  0.19640349265766441E-09 -0.10970105410761851E-09
  0.78576547375538173E-09  0.38924102105913135E-09
  0.62013043166120507E-09  0.31668887723801420E-09
 -0.35535398564972835E-01 -0.70621330764413082    
  0.61059784653290305      0.35660940728554236    
 -0.34022096274014143E-09 -0.46791145522589771E-09
 -0.35535397504553590E-01 -0.70621330706760077    
 -0.61059784655663085     -0.35660940849231959    
 -0.86231960082197923      0.49918797337559867    
  0.22960294772392656E-01  0.81046481521766731E-01
  0.97216312227398885E-03 -0.10937132674945756E-01
 -0.71563229591150232E-01  0.41427219774809627E-01
 -0.27021619578836809     -0.95382363609986098    
  0.90143805652482343E-02 -0.10141454198553987    
 -0.16843201905317354E-01  0.97503567713855474E-02
 -0.27403851833233784E-01 -0.96731589217315894E-01
 -0.88071945916361097E-01  0.99083631240841508    
  0.31532793678549881     -0.63035398612478677    
  0.91614119181786427E-01 -0.70114681277851909    
 -0.12587789924408031E-01  0.55350628732466711E-01
  0.31532793642497003     -0.63035398612213844    
 -0.91614118863621447E-01  0.70114681295853554    
 -0.12587789770021869E-01  0.55350629097937101E-01
  0.35914419413088129E-01 -0.71794454015006157E-01
 -0.17439119262124396E-09  0.21556117373140460E-09
  0.22104113276769097     -0.97195500331840712    
  0.96607757010909699E-02  0.83372909923577723E-01
  0.39996419216423340     -0.57704789447592486    
  0.67414123865644882     -0.21338601199187246    
  0.11429039491975260      0.98633106016313066    
 -0.67616604672667599E-01  0.97553780854961206E-01
 -0.54761654175631988E-10 -0.17955137272447886E-09
  0.96607753819013716E-02  0.83372909924665728E-01
  0.39996419232359015     -0.57704789397388501    
 -0.67414123910144330      0.21338601165897353    
  0.23186726772872664E-10  0.57244848355956285E-10
 -0.20036456216434394E-09  0.15072348450151222E-10
 -0.34655345948931549     -0.93803022324229168    
 -0.85042845732792616     -0.52031608527936313    
  0.74527504251237026E-01 -0.22096639483947595E-01
 -0.59894543471931075E-10 -0.46920985043714005E-10
 -0.66308041102046800E-01 -0.40569126828302389E-01
 -0.95584652366593659      0.28339868177064709    
  0.10358571841345410E-09  0.16633950001158985E-09
 -0.46717629556435165E-01  0.69726865442253372E-01
 -0.13467177680712558      0.68907121508207947    
 -0.67991993698133668     -0.19418774342485412    
  0.55268611022491754     -0.82489351930322385    
 -0.22767159126517510E-01  0.11649206771836758    
  0.23092815275244838E-10  0.12214510062657701E-09
  0.46717629587164251E-01 -0.69726865596949031E-01
  0.13467177771525798     -0.68907121546900807    
 -0.67991993621502744     -0.19418774404223157    
  0.21050431902007138     -0.67265577160895207    
  0.47339178074710619     -0.52526205074701182    
  0.49539842184430118E-01 -0.27711885492198555E-01
 -0.21050431917572304      0.67265577157820011    
  0.47339178084299777     -0.52526205059610553    
 -0.49539842610904279E-01  0.27711885516136171E-01
 -0.23975484969917041E-01  0.76612435586012398E-01
  0.89071265696554224E-10 -0.28265785049521113E-09
  0.86991780438972932     -0.48661969179205061    
 -0.72431789940002100     -0.68421291078131952    
  0.62395230586016447E-01 -0.56591011346430263E-01
 -0.68072052599803456E-02 -0.86155626833037940E-02
  0.60110576236982564E-01  0.56782295293303073E-01
  0.73431991953859299     -0.66601094354610768    
  0.63119800945166477E-01  0.79887790931943717E-01
  0.14147692361955093E-01  0.13364344181767879E-01
  0.74470719866886415E-01 -0.67543196275238859E-01
 -0.61669056107727116     -0.78051650687416962    
 -0.87697901555921631     -0.48052867372175712    
 -0.22151054371986492E-09  0.10940528819574435E-09
  0.60672449209740567E-09 -0.10117865140877449E-08
  0.18653689418377724E-09  0.41594827871949012E-09
 -0.98214453161448434     -0.41073668160698075E-02
  0.18504078106414643     -0.33692104427728915E-01
 -0.22526046429136730E-09 -0.10928457124383036E-08
 -0.18808144479111427     -0.78656397412248905E-03
 -0.96626645681779411      0.17593716455366742    
  0.81803582536792641     -0.56982102676841884    
[...]
  0.22390579671361065E-08  0.72171001689906903E-08
  0.39138038685462478E-08  0.18554662466992080E-08
 -0.56848333922156160E-09  0.59957390541685876E-09
  0.91521173335514983      0.37909312320265282    
 -0.34745946159712168E-08  0.69326027989857975E-09
 -0.77914695741790727E-09 -0.74836499555592639E-09
 -0.53634395851363501E-09  0.26535563886361474E-08
  0.91521173844222414      0.37909311309794036    
  0.91474205920190832      0.37889856691427165    
 -0.31352396695986614E-02 -0.12986573476811713E-02
 -0.15648802869247163E-08 -0.68736305828356846E-09
  0.31767769265525544E-02  0.13158645152679573E-02
  0.92073286438577195      0.38138004046645729    
  0.65958032938928390E-09 -0.14227362596559407E-08
  0.69757158039981693E-09  0.72971710195926987E-09
 -0.91141881028983800E-09 -0.65009242493156851E-09
  0.91309026898147594      0.37821437437518995    
  0.91474205513576123      0.37889856605774436    
 -0.11767551016935345E-09 -0.13440667681225074E-08
 -0.31352409990130308E-02 -0.12986587147424038E-02
  0.14018423911747559E-09 -0.33486184042296428E-08
  0.91309027029882561      0.37821437432182892    
 -0.40566077961671538E-08 -0.25019626669095399E-08
  0.31767770573123623E-02  0.13158643579504728E-02
 -0.19140967132520298E-08  0.70935670130211567E-09
  0.92073286512155683      0.38138003959363026    
  0.92030016082596255      0.38120080819506880    
  0.14991898725369142E-08  0.12539992571975710E-08
  0.22691043046532550E-08 -0.59048798889150326E-09
  0.11151362127938880E-09  0.64213134782219377E-09
  0.91391303850766314      0.37855517747279660    
  0.27918152789428020E-10  0.13509463026813581E-08
  0.12029631269489119E-08 -0.11560137313916206E-08
  0.15160484848969200E-08  0.16142600078759950E-08
  0.91391303851836558      0.37855517628463969    
  0.92124327232373160     -0.38159145716569343    
 -0.40349387230845966E-09 -0.15478838254088249E-08
 -0.19911669259982197E-09  0.40471011586467556E-09
 -0.11309088678738293E-08 -0.21809921957299119E-09
  0.91349977081559730     -0.37838399377635068    
  0.12198558965461943E-08  0.15364333564890658E-10
  0.12573517658365959E-08  0.45879861204644020E-09
 -0.93801910735662999E-09  0.32217612684273328E-09
  0.91349977020701678     -0.37838399517963045    
  0.91474205596654579     -0.37889856683925388    
  0.31352391598890024E-02 -0.12986589732515432E-02
  0.65989974469219851E-09  0.57118614092321146E-09
 -0.31767776883149814E-02  0.13158628772247819E-02
  0.92073286418797284     -0.38138004051692626    
  0.15226161806941316E-09  0.59928846804344345E-09
 -0.11145167390021259E-08  0.10701773214686678E-08
 -0.21476341778608369E-09  0.64739520608262815E-09
  0.91309026777048075     -0.37821437326143753    
  0.91474206155857640     -0.37889856901304331    
 -0.47289543963120416E-09  0.27353956221477172E-09
  0.31352393256887990E-02 -0.12986593725512546E-02
  0.22666072481506076E-08  0.32384134593510651E-08
  0.91309026770663282     -0.37821437295402571    
  0.50391766638614838E-08 -0.55823020829304803E-09
 -0.31767785971264745E-02  0.13158647831266804E-02
  0.25044883353499152E-08  0.47612670181043663E-09
  0.92073286485646777     -0.38138004025227951    
  0.91457628045896466      0.37882989883760665    
 -0.17799620383576202E-02 -0.73728332711179385E-03
  0.18382626562211936E-08 -0.21016429069613104E-09
  0.16202955650720476E-02  0.67114886422274663E-03
  0.92184028219466774      0.38183874602666457    
  0.86817548801947739E-09 -0.16499606399315848E-08
  0.14977246827739246E-08  0.19491169100411799E-10
 -0.36266771252347797E-09 -0.18108034344932488E-09
  0.91217129800114494      0.37783372189003966    
  0.91457628203817798      0.37882989870899275    
 -0.16388838078123422E-08 -0.87410350010199115E-09
 -0.17799603761465906E-02 -0.73728527023992534E-03
 -0.11231137793457013E-08  0.87220307439238165E-09
  0.91217129761553206      0.37783372223779432    
  0.20196212681729748E-09 -0.76658419465802712E-09
  0.16202971968091748E-02  0.67115004088416825E-03
 -0.19541703939264547E-10 -0.13561032377473852E-08
  0.92184028227773740      0.38183874679920032    
  0.92124327232373138      0.38159145716569320    
 -0.11309088678738293E-08  0.21809921957299013E-09
  0.12573517658365986E-08 -0.45879861204644232E-09
 -0.40349387230845966E-09  0.15478838254088299E-08
  0.91349977081559719      0.37838399377635068    
 -0.93801908270367216E-09 -0.32217612580497187E-09
 -0.19911669259982093E-09 -0.40471011586467365E-09
  0.12198558660047683E-08 -0.15364320020601613E-10
  0.91349977020701678      0.37838399517963045    
  0.92212827140057174     -0.38195803610025097    
 -0.17911078006885397E-09  0.93477788195054588E-09
 -0.65529910688250430E-09 -0.59850452747750380E-09
  0.67738461647420100E-10  0.37016840760910172E-09
  0.91401992234174223     -0.37859944994513428    
 -0.49876192043201153E-09 -0.59422010922577406E-09
  0.43246147214209117E-09  0.59610073231069361E-10
  0.72536107348492353E-10  0.11706683812373707E-08
  0.91401992423603340     -0.37859944864008049    
  0.91457628167847926     -0.37882989914390042    
  0.17799616917669554E-02 -0.73728507408245085E-03
 -0.94033024846586046E-09  0.14805077037839029E-08
 -0.16202988649072301E-02  0.67114656438329006E-03
  0.92184028137408713     -0.38183874640217175    
  0.10245428961917318E-08  0.81219661775301876E-09
 -0.33465552897703395E-10  0.22419444522800360E-09
  0.72679176069838002E-09 -0.10610589673317310E-08
  0.91217129712262124     -0.37783372177216507    
  0.91457628030618121     -0.37882989730729222    
  0.57127730763861710E-10 -0.38842539578348478E-09
  0.17799618700199526E-02 -0.73728268933093578E-03
  0.29574499584548754E-09 -0.12353758753155951E-08
  0.91217129770834282     -0.37783372229978729    
 -0.36632078329302855E-09  0.29277326861045093E-09
 -0.16202966423425542E-02  0.67114965332782869E-03
  0.60344630159166412E-09 -0.75003355075396793E-09
  0.92184028208705548     -0.38183874625770842    
  0.91453304737774155      0.37881199278011818    
  0.18054905802536473E-08  0.58476496974923106E-09
 -0.42671445854622065E-09 -0.16156672160263611E-08
  0.89709880189771317E-09 -0.13744314331662877E-08
  0.92238592016441101      0.38206475913273658    
 -0.57508895684148987E-09 -0.11537128798885436E-08
 -0.20993500238990439E-08 -0.94590358534325820E-09
 -0.29080170327317663E-08 -0.18821405648988935E-09
  0.91259001004283180      0.37800715838750587    
  0.91453304777533639      0.37881199302787699    
 -0.13500843029607327E-09  0.26407507499186319E-09
  0.57137306243386743E-09  0.22208488337948927E-08
 -0.36089363119031698E-08  0.32135153344049219E-09
  0.91259000721123218      0.37800715960093478    
 -0.11922678608021214E-08  0.16096279414738107E-08
 -0.32957119779526082E-09  0.45895966652349246E-09
 -0.19923969616030305E-08  0.11289012281616339E-08
  0.92238592151720733      0.38206475787155314    
  0.92212827140057152      0.38195803610025092    
  0.67738461647420165E-10 -0.37016840760910152E-09
  0.43246147214209148E-09 -0.59610073231068650E-10
 -0.17911078006885387E-09 -0.93477788195054670E-09
  0.91401992234174234      0.37859944994513445    
  0.72536079027381585E-10 -0.11706683189612378E-08
 -0.65529910688250348E-09  0.59850452747750421E-09
 -0.49876192084967177E-09  0.59422012181528565E-09
  0.91401992423603318      0.37859944864008049    
  0.92212827165566791     -0.38195803664040634    
  0.17943407004773773E-10  0.10538406692027044E-09
  0.55906046400541430E-09  0.71316334837576614E-10
 -0.26807209225576004E-09 -0.37760443115974863E-09
  0.91401992315388625     -0.37859944758906350    
 -0.47314172172849445E-10  0.76110869833184551E-09
 -0.82144644745909740E-09 -0.23805410819764043E-10
  0.20451635877553092E-10 -0.60602947799733192E-09
  0.91401992159987244     -0.37859944876156576    
  0.91453304794646362     -0.37881199331241222    
 -0.14476951493213382E-08 -0.70659554726176070E-09
  0.20918346093808097E-08 -0.11424685849323136E-08
  0.34229814103024405E-10  0.15876395295702655E-08
  0.92238592060858460     -0.38206475809579521    
  0.21484426430607728E-08 -0.68577710019043723E-09
  0.25194522884869077E-08 -0.38013606939280064E-09
  0.26197893057420375E-08 -0.26388006957851275E-08
  0.91259001033607157     -0.37800715948808489    
  0.91453304832156845     -0.37881199302570118    
 -0.23469051009378774E-08  0.27297184724838509E-08
 -0.19285872032287004E-08 -0.10959086003155549E-08
  0.12497033095195417E-09 -0.16640499755287506E-08
  0.91259001157686248     -0.37800716181760474    
 -0.14069873086949777E-09 -0.10039588867870118E-08
  0.65546342848163823E-09 -0.12299534493136216E-09
 -0.91297495440435339E-09  0.82960759350020247E-09
  0.92238591982846385     -0.38206475756820768    
  0.91457627850032708      0.37882989761218161    
  0.17799608482437204E-02  0.73728301805681302E-03
  0.94366574637427795E-09 -0.13244471071698620E-08
 -0.16202942429899871E-02 -0.67114862336379655E-03
  0.92184028160322007      0.38183874653367039    
 -0.90413083497954057E-09  0.32707108320968276E-09
 -0.91395938325448600E-10  0.33429030906487569E-08
 -0.70074602220629680E-09 -0.23999386492559435E-09
  0.91217129638439942      0.37783372251238556    
  0.91457627909392891      0.37882989908484649    
 -0.11586143410149662E-08  0.78129481037104799E-10
  0.17799600360140439E-02  0.73728334023138932E-03
  0.15629379464031521E-08  0.16508911934165670E-08
  0.91217129856223322      0.37783372333170673    
  0.64852910850489968E-09 -0.10466910237238944E-08
 -0.16202951270868876E-02 -0.67114787760092312E-03
  0.48510955292674518E-09 -0.63290488284009215E-09
  0.92184028211793356      0.38183874733848078    
  0.92212827165566780      0.38195803664040623    
 -0.26807209225576128E-09  0.37760443115974894E-09
 -0.82144644745909823E-09  0.23805410819763649E-10
  0.17943407004773385E-10 -0.10538406692027137E-09
  0.91401992315388636      0.37859944758906361    
  0.20451642680910816E-10  0.60602950624839090E-09
  0.55906046400541368E-09 -0.71316334837576498E-10
 -0.47314199697133929E-10 -0.76110871236173280E-09
  0.91401992159987244      0.37859944876156576    
  0.92124327132165029     -0.38159145787426468    
 -0.29809325529919704E-09  0.16693366216564110E-08
  0.37269951177077431E-10  0.72285641677623820E-09
  0.16453504395950924E-09  0.25537095400272865E-09
  0.91349976996868865     -0.37838399429384251    
 -0.68095008928998704E-09  0.23222309617430226E-09
  0.42161243544067354E-09 -0.54710445410665889E-09
  0.75946189000101880E-09  0.17548278124485706E-09
  0.91349977060446785     -0.37838399238205805    
  0.91457628189658424     -0.37882989834419839    
 -0.17799603206783224E-02  0.73728398457803144E-03
  0.76528267304573523E-09  0.38316417357011805E-09
  0.16202947481196092E-02 -0.67114856062854401E-03
  0.92184028141483432     -0.38183874826491737    
  0.32479942117359952E-09 -0.13943071560499552E-08
 -0.17706287640090365E-08 -0.20036923732544728E-08
  0.19079368763131961E-09 -0.45098905165625682E-10
  0.91217129845705802     -0.37783372194969195    
  0.91457628153988713     -0.37882990003481470    
  0.13744240668623164E-08  0.74479183710099303E-09
 -0.17799609004815918E-02  0.73728353546557328E-03
 -0.32662335826898958E-08 -0.57398679304333786E-09
  0.91217129629408178     -0.37783372244183255    
 -0.20242524565147358E-09  0.15574142353802632E-08
  0.16202957119945767E-02 -0.67114862877067040E-03
  0.10088118625882626E-08 -0.68598142351861122E-09
  0.92184028112777761     -0.38183874827937475    
  0.91474205681367682      0.37889856563721769    
  0.31352389328158543E-02  0.12986589378118298E-02
  0.93941073677091204E-09 -0.27798060238137528E-08
 -0.31767791383646134E-02 -0.13158638385906286E-02
  0.92073286379108099      0.38138004125815383    
 -0.38434093489605200E-08  0.54424532962724882E-08
 -0.11344437890614381E-08 -0.85053345489296505E-09
  0.66934358142503751E-09  0.42158872240760133E-09
  0.91309027141475352      0.37821437166979294    
  0.91474205847812462      0.37889856671457267    
  0.85901676203341699E-09 -0.79882995657578178E-09
  0.31352384830134177E-02  0.12986576468426473E-02
 -0.15162647177269027E-08  0.18352993121509501E-09
  0.91309026797851156      0.37821437330527446    
  0.27753409379832770E-09 -0.28582064735168682E-09
 -0.31767775266895943E-02 -0.13158641029512930E-02
 -0.57289925807812667E-09 -0.27150490329268337E-09
  0.92073286492955797      0.38138004059774305    
  0.92124327132165029      0.38159145787426463    
  0.16453504395950805E-09 -0.25537095400272834E-09
  0.42161243544067287E-09  0.54710445410665662E-09
 -0.29809325529919658E-09 -0.16693366216564124E-08
  0.91349976996868876      0.37838399429384262    
  0.75946183400909603E-09 -0.17548268660319283E-09
  0.37269951177076068E-10 -0.72285641677623696E-09
 -0.68095006834057675E-09 -0.23222293054670846E-09
  0.91349977060446763      0.37838399238205794    
  0.92030016028599826     -0.38120080807946061    
 -0.21194340009473650E-08 -0.87160403795314620E-09
 -0.21929235248811746E-09  0.17285162860853512E-08
  0.12304648934955387E-08  0.13116859481186341E-08
  0.91391303853538075     -0.37855517737314409    
 -0.28491005743242824E-09 -0.86112098425526361E-09
 -0.66021954699057547E-09  0.58748575746088700E-10
 -0.63430824686413308E-09 -0.52877697303657616E-09
  0.91391304053338684     -0.37855517481947126    
  0.91474205850313450     -0.37889856874094840    
 -0.31352378367020110E-02  0.12986572804406132E-02
  0.12354946755884516E-08 -0.11498741349264645E-09
  0.31767790120208095E-02 -0.13158650878593782E-02
  0.92073286548995226     -0.38138003954696231    
  0.20698908051466392E-08 -0.15936295604419449E-08
  0.21426832032774522E-08  0.31755068799888055E-09
 -0.23987470322021771E-09 -0.10092609333557695E-08
  0.91309026979009089     -0.37821437314021045    
  0.91474205833265054     -0.37889856513785108    
  0.14074769588513521E-09 -0.83521926543764197E-10
 -0.31352378167760460E-02  0.12986594226670476E-02
 -0.23525280069087454E-09 -0.24519370436040670E-09
  0.91309026995546727     -0.37821437232609523    
  0.77421551084575521E-10  0.10083152182500034E-08
  0.31767762556341572E-02 -0.13158634974879257E-02
  0.15957301657914434E-09 -0.24532688785319721E-08
  0.92073286195141690     -0.38138003887603622    
  0.91503592107237974      0.37902028888763978    
  0.28542886425985186E-02  0.11822862222817772E-02
  0.20514163495048125E-08 -0.22874386073114909E-08
 -0.30242503297467070E-02 -0.12526870031286507E-02
  0.92000472193748495      0.38107843534076635    
 -0.11662818954773408E-08  0.21436376024751555E-08
 -0.79295489240406852E-09  0.71449748990155139E-09
  0.11721477782058465E-08  0.71196588753524772E-10
  0.91447438662442115      0.37878769470592055    
  0.91503592231085007      0.37902028678488642    
 -0.26247593429123416E-09  0.12509345029597413E-08
  0.28542889472772046E-02  0.11822851375085043E-02
 -0.15131095757436416E-08  0.28255450976211292E-08
  0.91447438821795557      0.37878769591534939    
 -0.79279755469487878E-09  0.75406176068095706E-09
 -0.30242492832104019E-02 -0.12526854691520559E-02
  0.28630088889980434E-08 -0.11856716615468290E-08
  0.92000472170202929      0.38107843436543698    
  0.92030016028599815      0.38120080807946066    
  0.12304648934955399E-08 -0.13116859481186327E-08
 -0.66021954699057402E-09 -0.58748575746089747E-10
 -0.21194340009473700E-08  0.87160403795314775E-09
  0.91391303853538075      0.37855517737314409    
 -0.63430823582106625E-09  0.52877698134126137E-09
 -0.21929235248811691E-09 -0.17285162860853526E-08
 -0.28491007782322520E-09  0.86112097360165130E-09
  0.91391304053338684      0.37855517481947132    
  0.91990298025355488     -0.38103629114390625    
 -0.67526561696896536E-08 -0.11069951399648625E-08
 -0.58961316148548437E-08  0.66777641633120182E-09
  0.28039350857196509E-08 -0.79045235996719677E-09
  0.91521173445610204     -0.37909312434426312    
  0.95093513062122013E-09 -0.45653506685011922E-08
  0.90216510094403152E-10  0.51770400889342586E-09
 -0.27223650743817194E-08 -0.21151387071799068E-08
  0.91521173640544007     -0.37909311315055527    
  0.91503592622293684     -0.37902029011179916    
 -0.28542883285422975E-02  0.11822868929788142E-02
  0.16162575752133024E-08  0.10653732299191618E-08
  0.30242499935198967E-02 -0.12526829576625085E-02
  0.92000472324975502     -0.38107843161636579    
  0.47661014375459914E-09  0.21106781465911356E-10
 -0.61045748981970644E-09  0.86375856336024714E-09
 -0.54828768163668043E-09 -0.11667598375205536E-09
  0.91447438736467068     -0.37878769356997249    
  0.91503593021525886     -0.37902029002263876    
  0.91968157383844978E-09 -0.17276378638899728E-08
 -0.28542883830899642E-02  0.11822856414756360E-02
 -0.24383685610707977E-09 -0.14986165427935602E-08
  0.91447438639798928     -0.37878769206220242    
 -0.39709158791194764E-09  0.48563734247376896E-09
  0.30242494906969307E-02 -0.12526833923932688E-02
  0.14231767626798117E-08  0.32237168235816354E-09
  0.92000472203621586     -0.38107843444062234    
  0.91521173500295161      0.37909311633437254    
 -0.21446792676960592E-08  0.25801030064824138E-08
 -0.69021009069673872E-08 -0.11736039115627717E-08
 -0.55095328350676972E-10 -0.62164535684474574E-09
  0.91990298061990061      0.38103629165445962    
 -0.22481362675728021E-08  0.20575636882538736E-08
 -0.17084883882372607E-09 -0.16374466272406479E-08
  0.41591114826388838E-09  0.35828079047046800E-09
  0.91521173976437253      0.37909311383438099    
  0.91521173477919204      0.37909310784657074    
 -0.36024936921630373E-08 -0.84218888628488452E-09
 -0.51448102854838155E-08 -0.10103574755683943E-08
  0.79836869603406767E-09 -0.15661634155215433E-08
  0.91521174034889019      0.37909311827615316    
  0.19201841342181454E-08 -0.68536668664722865E-09
 -0.15088283216130448E-08 -0.87601371382339965E-09
 -0.33015359387156051E-08 -0.73745906983158742E-09
  0.91990298017717542      0.38103629121630084    
  0.91990298025355477      0.38103629114390619    
  0.28039351452394203E-08  0.79045238385119830E-09
  0.90216513332524974E-10 -0.51770399533441939E-09
 -0.67526561778697362E-08  0.11069951445620627E-08
  0.91521173445610204      0.37909312434426301    
 -0.27223650985438433E-08  0.21151387162708546E-08
 -0.58961315891575548E-08 -0.66777644155223700E-09
  0.95093512865487678E-09  0.45653506927651648E-08
  0.91521173640544018      0.37909311315055527    
  0.91521173896918973     -0.37909311721861655    
 -0.87726749349852814E-09 -0.32186946145302687E-08
  0.24916831931298361E-08 -0.11366762080496803E-08
  0.51393733428252929E-09  0.73857816132971188E-09
  0.91990297916208574     -0.38103629003249134    
  0.99568313087326978E-09  0.79354169635557380E-09
  0.51771437977334272E-09  0.83101982452689109E-09
 -0.72006697739456829E-09  0.83013322899898223E-09
  0.91521173619960106     -0.37909311326366363    
  0.91521174476407530     -0.37909311367263498    
  0.32318021102309005E-08 -0.18613204622031696E-08
  0.49033660690090954E-08 -0.24417027644168391E-08
  0.60870086431314614E-09  0.22193297515264782E-08
  0.91521173517503562     -0.37909311598399981    
 -0.12290157413363607E-08  0.20590131672292268E-08
 -0.12987773451024777E-08 -0.22591754465276350E-08
  0.79181235992894358E-10 -0.27077545954533795E-08
  0.91990298085554012     -0.38103629132737621    
  0.91990297884145178     -0.38103629047345383    
 -0.56848340476902238E-09 -0.59957381495409361E-09
 -0.77914692378495408E-09  0.74836501039237744E-09
  0.22390579230474138E-08 -0.72171002323123472E-08
  0.91521173335514983     -0.37909312320265270    
 -0.53634410020374223E-09 -0.26535563058596533E-08
  0.39138038255122972E-08 -0.18554662478773549E-08
 -0.34745946120703377E-08 -0.69326034386017751E-09
  0.91521173844222403     -0.37909311309794014    
   1.9210455617317121       1.9210455614517483       1.9210455616247260    
   1.9210455615424620       1.9210455617345621       1.9210455619271549    
   1.9210455612808555       1.9210455617131312       1.9210455610590795    
   1.8568569414630272    
   1.8568569414062015    
   1.8568569420112446    
